/*--------------------------------*- C++ -*----------------------------------*\
  =========                 |
  \\      /  F ield         | OpenFOAM: The Open Source CFD Toolbox
   \\    /   O peration     | Website:  https://openfoam.org
    \\  /    A nd           | Version:  9
     \\/     M anipulation  |
\*---------------------------------------------------------------------------*/
FoamFile
{
    format      ascii;
    class       volScalarField;
    location    "3";
    object      p;
}
// * * * * * * * * * * * * * * * * * * * * * * * * * * * * * * * * * * * * * //

dimensions      [0 2 -2 0 0 0 0];

internalField   nonuniform List<scalar> 
10000
(
5.13194e-08
2.06457e-05
3.29756e-05
3.2549e-05
1.56155e-05
-1.89884e-05
-7.06641e-05
-0.000137984
-0.00021923
-0.000312688
-0.000416821
-0.000530378
-0.00065245
-0.000782487
-0.000920263
-0.00106583
-0.00121947
-0.0013816
-0.00155271
-0.00173331
-0.00192383
-0.00212457
-0.00233568
-0.00255709
-0.00278848
-0.00302928
-0.00327863
-0.00353535
-0.00379791
-0.00406446
-0.00433277
-0.00460026
-0.00486398
-0.00512062
-0.00536656
-0.00559788
-0.00581044
-0.00599993
-0.00616194
-0.00629212
-0.00638622
-0.00644026
-0.00645064
-0.00641432
-0.00632891
-0.00619282
-0.00600542
-0.00576713
-0.00547953
-0.00514542
-0.00476891
-0.00435529
-0.00391086
-0.00344401
-0.00296327
-0.00247834
-0.00199961
-0.0015379
-0.00110411
-0.000708975
-0.000362652
-7.44234e-05
0.00014766
0.000297082
0.000369124
0.000361071
0.000272339
0.000104517
-0.000138677
-0.000451548
-0.000826718
-0.00125517
-0.00172698
-0.0022315
-0.00275778
-0.00329503
-0.003833
-0.00436226
-0.00487451
-0.0053627
-0.00582121
-0.00624583
-0.00663373
-0.00698334
-0.00729426
-0.00756701
-0.00780288
-0.0080037
-0.00817164
-0.00830899
-0.00841799
-0.00850071
-0.00855892
-0.00859414
-0.00860773
-0.00860133
-0.0085776
-0.00854149
-0.00850085
-0.00846908
-2.01508e-05
3.89733e-07
7.9798e-06
2.78805e-06
-1.63832e-05
-5.05468e-05
-9.95044e-05
-0.000162346
-0.000237863
-0.000324774
-0.00042188
-0.000528183
-0.000642914
-0.000765627
-0.000896106
-0.00103437
-0.00118064
-0.00133525
-0.0014986
-0.00167112
-0.00185316
-0.002045
-0.00224675
-0.00245837
-0.00267958
-0.00290988
-0.00314851
-0.00339441
-0.00364621
-0.00390222
-0.00416042
-0.00441842
-0.00467349
-0.00492255
-0.00516222
-0.0053888
-0.00559838
-0.00578684
-0.00595
-0.00608364
-0.00618366
-0.00624619
-0.00626768
-0.00624511
-0.00617605
-0.00605884
-0.00589273
-0.00567796
-0.00541588
-0.00510906
-0.0047614
-0.00437788
-0.00396412
-0.00352793
-0.00307777
-0.00262287
-0.00217316
-0.00173896
-0.00133074
-0.00095878
-0.000632849
-0.000361855
-0.000153525
-1.41097e-05
5.18773e-05
4.18518e-05
-4.4718e-05
-0.000206275
-0.000439225
-0.00073808
-0.0010957
-0.00150359
-0.00195216
-0.0024313
-0.00293066
-0.00344005
-0.00394982
-0.00445113
-0.00493625
-0.00539866
-0.00583315
-0.00623588
-0.00660425
-0.00693689
-0.00723342
-0.00749437
-0.00772094
-0.0079148
-0.00807797
-0.00821259
-0.0083208
-0.00840463
-0.00846593
-0.00850638
-0.00852762
-0.00853144
-0.00852032
-0.0084981
-0.00846918
-0.00843728
-3.24426e-05
-7.09576e-06
4.18705e-07
-6.21569e-06
-2.61904e-05
-6.00838e-05
-0.000107636
-0.00016801
-0.00024015
-0.000322942
-0.000415347
-0.000516495
-0.000625761
-0.000742726
-0.000867237
-0.000999348
-0.00113928
-0.00128738
-0.00144404
-0.00160968
-0.00178467
-0.0019693
-0.00216373
-0.00236797
-0.00258181
-0.00280486
-0.00303645
-0.00327567
-0.00352131
-0.00377182
-0.00402534
-0.00427966
-0.0045322
-0.00478003
-0.0050199
-0.00524824
-0.00546121
-0.00565477
-0.00582475
-0.00596694
-0.00607719
-0.00615154
-0.00618637
-0.00617848
-0.0061253
-0.00602498
-0.00587656
-0.00568005
-0.00543656
-0.00514848
-0.00481941
-0.0044533
-0.00405743
-0.00363831
-0.00320418
-0.00276418
-0.00232811
-0.00190618
-0.00150878
-0.00114612
-0.000827929
-0.000563082
-0.000359304
-0.000222847
-0.000158238
-0.000168078
-0.000252918
-0.000411219
-0.000639407
-0.000932017
-0.00128192
-0.00168064
-0.00211872
-0.0025861
-0.00307247
-0.00356787
-0.00406281
-0.00454868
-0.00501799
-0.0054645
-0.00588329
-0.00627079
-0.00662469
-0.00694383
-0.00722805
-0.00747803
-0.00769508
-0.00788097
-0.00803775
-0.00816759
-0.00827266
-0.00835501
-0.0084165
-0.00845883
-0.00848352
-0.00849206
-0.00848634
-0.00846896
-0.00844035
-0.00839655
-3.22472e-05
-2.01573e-06
6.53396e-06
-5.54792e-07
-2.10377e-05
-5.50123e-05
-0.000101979
-0.000160986
-0.000230957
-0.000310822
-0.000399613
-0.000496543
-0.000601054
-0.000712823
-0.000831768
-0.000958012
-0.00109184
-0.00123366
-0.00138393
-0.00154311
-0.00171167
-0.00188995
-0.0020782
-0.00227653
-0.00248487
-0.00270294
-0.00293024
-0.003166
-0.00340917
-0.00365838
-0.00391191
-0.00416768
-0.00442325
-0.00467578
-0.00492206
-0.00515854
-0.00538135
-0.0055864
-0.0057694
-0.00592597
-0.0060518
-0.00614271
-0.00619482
-0.00620469
-0.00616948
-0.00608708
-0.00595625
-0.00577677
-0.00554954
-0.00527683
-0.00496233
-0.00460851
-0.00422369
-0.00381427
-0.0033883
-0.00295487
-0.00252379
-0.00210534
-0.00171001
-0.00134814
-0.0010296
-0.000763433
-0.000557545
-0.00041836
-0.000350567
-0.000356904
-0.000438026
-0.000592456
-0.000816636
-0.00110507
-0.00145056
-0.00184448
-0.00227719
-0.00273884
-0.00321846
-0.00370626
-0.00419266
-0.00466901
-0.00512788
-0.00556313
-0.00597001
-0.00634513
-0.00668652
-0.0069932
-0.00726532
-0.00750382
-0.00771026
-0.00788663
-0.00803515
-0.00815814
-0.00825789
-0.00833651
-0.00839587
-0.00843758
-0.00846295
-0.00847301
-0.00846888
-0.00845201
-0.00841955
-0.00836212
-1.54687e-05
1.70292e-05
2.56517e-05
1.76974e-05
-3.74185e-06
-3.8366e-05
-8.54147e-05
-0.000143775
-0.0002123
-0.000289913
-0.000375677
-0.000468864
-0.000568993
-0.000675838
-0.000789418
-0.000909962
-0.00103787
-0.00117364
-0.00131786
-0.00147112
-0.00163399
-0.00180695
-0.00199041
-0.00218462
-0.00238967
-0.00260548
-0.00283173
-0.00306784
-0.00331292
-0.00356577
-0.00382482
-0.00408808
-0.00435317
-0.00461725
-0.00487709
-0.00512903
-0.00536906
-0.00559286
-0.00579591
-0.00597356
-0.00612116
-0.00623422
-0.00630852
-0.00634029
-0.00632637
-0.00626434
-0.00615269
-0.00599097
-0.00577988
-0.00552118
-0.00521738
-0.00487519
-0.00449869
-0.00409516
-0.00367288
-0.00324101
-0.00280946
-0.00238865
-0.00198925
-0.00162181
-0.00129645
-0.0010225
-0.000808161
-0.000660151
-0.000583446
-0.000581044
-0.00065382
-0.00080046
-0.0010175
-0.00129946
-0.00163908
-0.00202764
-0.00245533
-0.00291177
-0.00338624
-0.00386836
-0.00434846
-0.00481758
-0.00526826
-0.00569431
-0.00609102
-0.00645515
-0.00678475
-0.0070793
-0.00733914
-0.00756551
-0.00776029
-0.00792575
-0.00806437
-0.00817872
-0.00827123
-0.00834415
-0.00839939
-0.00843848
-0.00846252
-0.00847208
-0.00846765
-0.00844973
-0.00841299
-0.00834392
1.97656e-05
5.15647e-05
5.88036e-05
4.91175e-05
2.5973e-05
-1.00179e-05
-5.78608e-05
-0.000116289
-0.000184072
-0.000260102
-0.000343462
-0.000433479
-0.000529756
-0.000632181
-0.000740902
-0.000856294
-0.000978909
-0.00110942
-0.00124858
-0.00139716
-0.00155591
-0.00172552
-0.00190659
-0.00209961
-0.00230489
-0.00252256
-0.00275253
-0.0029944
-0.00324748
-0.00351069
-0.00378255
-0.0040611
-0.00434391
-0.00462806
-0.00491012
-0.00518619
-0.00545198
-0.00570282
-0.0059338
-0.00613986
-0.00631596
-0.00645718
-0.00655891
-0.00661701
-0.00662798
-0.0065891
-0.0064986
-0.00635579
-0.00616122
-0.00591651
-0.00562437
-0.00529012
-0.00491907
-0.00451826
-0.00409589
-0.00366117
-0.00322413
-0.00279536
-0.00238573
-0.00200606
-0.00166681
-0.00137767
-0.00114722
-0.000982613
-0.000889251
-0.000870538
-0.000927718
-0.00105979
-0.00126352
-0.00153356
-0.00186271
-0.00224216
-0.00266197
-0.00311144
-0.0035796
-0.00405562
-0.00452996
-0.00499257
-0.0054362
-0.00585438
-0.00624227
-0.0065966
-0.00691556
-0.00719868
-0.00744663
-0.00766088
-0.00784362
-0.00799745
-0.00812516
-0.00822959
-0.00831342
-0.00837904
-0.00842847
-0.00846324
-0.00848426
-0.00849181
-0.00848587
-0.00846623
-0.00842592
-0.00834874
7.38766e-05
0.000102179
0.00010645
9.39734e-05
6.82467e-05
3.01214e-05
-1.92238e-05
-7.84008e-05
-0.00014611
-0.00022122
-0.000302837
-0.000390354
-0.000483481
-0.000582242
-0.000686951
-0.000798172
-0.000916661
-0.00104332
-0.00117912
-0.0013251
-0.00148226
-0.00165156
-0.00183387
-0.00202996
-0.00224041
-0.00246562
-0.00270571
-0.00296049
-0.00322941
-0.00351145
-0.00380513
-0.00410841
-0.00441869
-0.00473279
-0.00504696
-0.0053569
-0.00565788
-0.00594474
-0.00621209
-0.00645438
-0.00666608
-0.00684183
-0.0069766
-0.00706588
-0.00710583
-0.00709346
-0.00702674
-0.00690478
-0.0067279
-0.00649767
-0.00621683
-0.00589009
-0.00552306
-0.0051227
-0.00469719
-0.00425579
-0.0038086
-0.00336637
-0.00294018
-0.00254117
-0.00218013
-0.0018672
-0.00161147
-0.00142064
-0.00130068
-0.00125559
-0.00128717
-0.00139492
-0.00157603
-0.0018255
-0.00213629
-0.00249968
-0.00290565
-0.00334332
-0.00380143
-0.00426884
-0.00473511
-0.00519054
-0.00562697
-0.00603764
-0.00641747
-0.006763
-0.00707236
-0.00734504
-0.00758199
-0.00778475
-0.0079558
-0.00809803
-0.00821457
-0.00830853
-0.00838288
-0.00844022
-0.00848272
-0.00851197
-0.00852884
-0.00853341
-0.00852533
-0.00850396
-0.00846139
-0.00838004
0.000146617
0.000168862
0.000168595
0.000152229
0.000123032
8.20308e-05
3.05267e-05
-3.00215e-05
-9.82809e-05
-0.000173125
-0.000253709
-0.000339521
-0.000430404
-0.000526556
-0.000628499
-0.000737031
-0.000853174
-0.000978109
-0.00111312
-0.00125956
-0.00141875
-0.001592
-0.00178053
-0.00198541
-0.00220756
-0.00244762
-0.00270594
-0.00298249
-0.00327677
-0.00358774
-0.00391378
-0.00425262
-0.00460134
-0.00495634
-0.00531337
-0.00566763
-0.00601378
-0.00634612
-0.00665868
-0.00694537
-0.00720016
-0.00741723
-0.00759116
-0.00771708
-0.00779084
-0.00780918
-0.00776984
-0.0076717
-0.0075149
-0.00730082
-0.00703219
-0.00671341
-0.00634997
-0.00594875
-0.00551788
-0.00506657
-0.00460496
-0.00414392
-0.00369471
-0.00326875
-0.00287725
-0.00253082
-0.00223916
-0.00201064
-0.00185199
-0.00176797
-0.00176117
-0.00183185
-0.00197787
-0.00219478
-0.00247598
-0.00281302
-0.00319596
-0.00361384
-0.00405519
-0.00450851
-0.00496283
-0.00540805
-0.00583541
-0.00623767
-0.00660928
-0.00694645
-0.00724706
-0.00751055
-0.00773749
-0.00792984
-0.00809018
-0.00822159
-0.00832746
-0.00841121
-0.00847607
-0.00852491
-0.00856008
-0.00858331
-0.00859551
-0.00859673
-0.00858645
-0.00856379
-0.00852053
-0.00843881
0.000237377
0.000251229
0.00024496
0.000223681
0.000190194
0.000145654
9.14067e-05
2.89207e-05
-4.04926e-05
-0.000115759
-0.000196124
-0.00028121
-0.000371036
-0.000466015
-0.000566928
-0.000674866
-0.000791173
-0.000917384
-0.00105516
-0.00120624
-0.00137235
-0.00155521
-0.00175641
-0.00197741
-0.00221943
-0.00248335
-0.00276971
-0.00307852
-0.00340923
-0.00376065
-0.00413085
-0.00451718
-0.00491621
-0.00532378
-0.00573502
-0.00614447
-0.00654616
-0.00693374
-0.00730066
-0.00764027
-0.00794605
-0.00821176
-0.00843159
-0.00860034
-0.00871357
-0.00876777
-0.00876043
-0.00869022
-0.00855699
-0.00836192
-0.00810766
-0.00779823
-0.00743894
-0.00703647
-0.00659879
-0.00613498
-0.00565514
-0.00517016
-0.00469146
-0.00423069
-0.00379945
-0.00340892
-0.00306943
-0.00279019
-0.00257881
-0.00244106
-0.00238055
-0.00239856
-0.00249394
-0.00266309
-0.00290013
-0.00319714
-0.00354452
-0.00393142
-0.00434626
-0.00477726
-0.00521301
-0.00564285
-0.0060574
-0.00644878
-0.00681084
-0.00713924
-0.0074314
-0.00768641
-0.00790475
-0.00808815
-0.00823924
-0.00836123
-0.00845769
-0.00853226
-0.00858843
-0.00862932
-0.00865752
-0.00867493
-0.00868261
-0.00868066
-0.00866857
-0.00864536
-0.008603
-0.00852424
0.000345244
0.000348554
0.000334966
0.00030788
0.000269381
0.000220752
0.000163266
9.83173e-05
2.7131e-05
-4.93278e-05
-0.00013045
-0.000216042
-0.00030635
-0.00040206
-0.000504264
-0.000614411
-0.000734239
-0.000865704
-0.00101092
-0.00117207
-0.00135137
-0.00155097
-0.00177289
-0.00201895
-0.00229064
-0.00258907
-0.0029148
-0.0032678
-0.00364732
-0.00405182
-0.00447892
-0.0049254
-0.00538719
-0.00585942
-0.00633651
-0.00681228
-0.00728007
-0.00773288
-0.00816356
-0.00856495
-0.00893007
-0.00925225
-0.00952535
-0.00974385
-0.00990303
-0.00999911
-0.0100293
-0.0099921
-0.00988696
-0.00971478
-0.00947807
-0.00918039
-0.00882676
-0.00842356
-0.00797847
-0.00750036
-0.00699915
-0.00648564
-0.00597132
-0.00546803
-0.00498772
-0.0045421
-0.00414223
-0.00379819
-0.00351867
-0.00331062
-0.00317895
-0.00312624
-0.00315264
-0.00325579
-0.00343088
-0.00367085
-0.00396676
-0.00430812
-0.00468348
-0.00508091
-0.00548861
-0.00589541
-0.00629121
-0.0066674
-0.00701706
-0.00733512
-0.00761835
-0.00786528
-0.00807599
-0.00825186
-0.00839548
-0.00850989
-0.00859875
-0.00866584
-0.00871484
-0.00874908
-0.00877138
-0.00878385
-0.00878776
-0.00878334
-0.00877019
-0.00874736
-0.00870738
-0.00863426
0.000468962
0.000459725
0.000437641
0.000403978
0.000359971
0.000306782
0.000245621
0.000177698
0.000104068
2.55163e-05
-5.75587e-05
-0.000145208
-0.000237966
-0.000336852
-0.000443341
-0.000559306
-0.000686948
-0.000828718
-0.00098724
-0.00116523
-0.0013654
-0.00159038
-0.0018426
-0.00212421
-0.00243691
-0.00278188
-0.00315963
-0.00356989
-0.00401152
-0.00448249
-0.00497979
-0.00549948
-0.00603672
-0.00658586
-0.00714053
-0.0076938
-0.00823831
-0.00876643
-0.00927045
-0.00974271
-0.0101758
-0.0105627
-0.0108968
-0.0111725
-0.0113847
-0.0115293
-0.0116032
-0.0116047
-0.0115329
-0.0113883
-0.0111731
-0.0108904
-0.0105448
-0.0101423
-0.00969023
-0.009197
-0.00867228
-0.00812666
-0.00757152
-0.00701882
-0.00648075
-0.0059695
-0.00549685
-0.00507379
-0.00471019
-0.00441434
-0.00419267
-0.00404937
-0.00398625
-0.00400255
-0.00409495
-0.0042577
-0.00448288
-0.00476076
-0.00508029
-0.00542962
-0.00579673
-0.00616997
-0.00653855
-0.00689303
-0.00722558
-0.00753022
-0.00780286
-0.00804124
-0.0082448
-0.00841445
-0.00855216
-0.00866098
-0.0087444
-0.00880619
-0.00885009
-0.00887959
-0.00889769
-0.00890672
-0.00890812
-0.00890237
-0.0088892
-0.00886779
-0.00883147
-0.00876597
0.000606874
0.000583173
0.000551586
0.00051076
0.000460807
0.000402727
0.000337507
0.000266079
0.000189236
0.000107502
2.09969e-05
-7.06469e-05
-0.00016832
-0.000273448
-0.000387958
-0.000514222
-0.000654975
-0.00081323
-0.000992181
-0.0011951
-0.00142524
-0.00168567
-0.00197921
-0.00230822
-0.00267453
-0.00307923
-0.00352258
-0.00400391
-0.00452154
-0.00507274
-0.00565372
-0.00625972
-0.00688505
-0.00752319
-0.008167
-0.00880877
-0.00944047
-0.0100539
-0.0106407
-0.0111928
-0.0117025
-0.0121623
-0.0125653
-0.0129056
-0.0131779
-0.0133777
-0.0135017
-0.0135478
-0.0135148
-0.0134028
-0.0132136
-0.0129497
-0.0126154
-0.0122161
-0.0117584
-0.0112506
-0.0107016
-0.0101217
-0.00952219
-0.00891477
-0.00831181
-0.00772584
-0.00716924
-0.00665393
-0.00619091
-0.00578996
-0.00545917
-0.00520461
-0.00503008
-0.00493682
-0.00492346
-0.00498604
-0.00511816
-0.0053113
-0.00555521
-0.00583851
-0.00614917
-0.00647522
-0.00680524
-0.00712892
-0.00743743
-0.0077237
-0.00798255
-0.00821069
-0.00840667
-0.00857059
-0.00870388
-0.00880904
-0.00888928
-0.00894817
-0.00898941
-0.00901652
-0.00903261
-0.00904014
-0.00904076
-0.00903514
-0.00902321
-0.00900432
-0.00897271
-0.00891612
0.000756742
0.000716827
0.000674853
0.000626426
0.000570238
0.000507003
0.000437349
0.000361815
0.000280836
0.000194589
0.000102834
4.8115e-06
-0.000100803
-0.000215916
-0.000342984
-0.00048495
-0.000645151
-0.000827213
-0.00103494
-0.00127217
-0.00154266
-0.00184991
-0.00219698
-0.00258636
-0.00301981
-0.00349817
-0.00402128
-0.00458786
-0.00519551
-0.00584065
-0.00651863
-0.00722375
-0.0079494
-0.00868823
-0.00943224
-0.010173
-0.0109018
-0.0116099
-0.0122885
-0.0129289
-0.0135232
-0.0140634
-0.0145426
-0.0149543
-0.0152931
-0.0155543
-0.0157342
-0.0158305
-0.0158415
-0.0157671
-0.0156084
-0.0153676
-0.0150484
-0.0146555
-0.014195
-0.0136744
-0.0131021
-0.0124879
-0.0118426
-0.0111775
-0.010505
-0.00983773
-0.0091885
-0.00856996
-0.00799422
-0.00747247
-0.00701457
-0.00662865
-0.00632073
-0.00609446
-0.00595088
-0.00588833
-0.00590252
-0.00598668
-0.00613196
-0.00632784
-0.00656273
-0.0068246
-0.00710155
-0.00738245
-0.00765741
-0.00791811
-0.0081581
-0.00837282
-0.00855961
-0.00871753
-0.00884713
-0.00895018
-0.00902931
-0.00908773
-0.0091289
-0.00915622
-0.00917276
-0.00918108
-0.00918293
-0.00917916
-0.00916988
-0.0091546
-0.00912853
-0.00908147
0.000915735
0.000857971
0.000804884
0.000748559
0.000685958
0.000617337
0.000542839
0.000462481
0.000376236
0.000283845
0.000184622
7.73349e-05
-3.98559e-05
-0.000169417
-0.00031441
-0.000478415
-0.000665424
-0.000879712
-0.0011257
-0.00140778
-0.00173014
-0.00209659
-0.00251033
-0.0029738
-0.00348849
-0.0040548
-0.00467194
-0.00533787
-0.00604929
-0.00680168
-0.00758939
-0.00840574
-0.0092432
-0.0100935
-0.0109479
-0.0117971
-0.012632
-0.013443
-0.014221
-0.014957
-0.0156425
-0.0162694
-0.0168305
-0.0173192
-0.0177297
-0.0180571
-0.0182977
-0.0184487
-0.0185083
-0.0184758
-0.0183519
-0.0181385
-0.0178385
-0.0174559
-0.0169964
-0.0164664
-0.0158737
-0.0152274
-0.0145374
-0.0138149
-0.0130715
-0.0123199
-0.0115729
-0.0108438
-0.0101455
-0.00949051
-0.0088903
-0.00835512
-0.0078934
-0.00751148
-0.0072132
-0.00699974
-0.00686953
-0.00681822
-0.006839
-0.00692288
-0.00705924
-0.00723642
-0.00744237
-0.00766529
-0.00789425
-0.00811961
-0.00833345
-0.00852969
-0.0087042
-0.00885467
-0.00898045
-0.00908229
-0.00916201
-0.00922218
-0.00926579
-0.00929595
-0.00931557
-0.00932711
-0.00933238
-0.00933231
-0.00932714
-0.00931653
-0.00929661
-0.00925913
0.0010803
0.00100321
0.000938442
0.000874055
0.000804911
0.000730677
0.000650841
0.000564772
0.000471874
0.000371358
0.000262007
0.000142029
8.98926e-06
-0.000140218
-0.000309326
-0.00050261
-0.00072475
-0.00098068
-0.00127541
-0.00161381
-0.00200042
-0.00243919
-0.00293329
-0.00348492
-0.00409509
-0.00476355
-0.00548871
-0.00626757
-0.00709581
-0.00796788
-0.00887705
-0.00981563
-0.0107751
-0.0117464
-0.0127198
-0.0136855
-0.0146335
-0.0155539
-0.0164372
-0.0172739
-0.0180552
-0.0187731
-0.0194198
-0.0199888
-0.0204742
-0.020871
-0.0211753
-0.021384
-0.0214953
-0.0215081
-0.0214226
-0.0212404
-0.0209637
-0.020596
-0.0201419
-0.0196073
-0.018999
-0.0183251
-0.0175947
-0.0168181
-0.0160063
-0.0151715
-0.0143264
-0.0134842
-0.0126583
-0.0118623
-0.0111092
-0.0104109
-0.00977843
-0.00922087
-0.0087452
-0.00835587
-0.0080546
-0.0078402
-0.00770866
-0.0076533
-0.00766521
-0.00773376
-0.00784722
-0.00799348
-0.00816073
-0.00833804
-0.00851586
-0.00868639
-0.00884371
-0.00898382
-0.00910452
-0.00920522
-0.00928659
-0.00935029
-0.00939861
-0.00943412
-0.00945936
-0.0094766
-0.00948751
-0.00949302
-0.00949344
-0.00948848
-0.0094751
-0.00944683
0.0012461
0.00114843
0.00107157
0.000999016
0.000923254
0.000843132
0.000757331
0.000664446
0.000563206
0.000452198
0.000329584
0.000192932
3.91301e-05
-0.000135636
-0.000335833
-0.000566463
-0.000832904
-0.00114072
-0.00149545
-0.00190233
-0.00236609
-0.00289067
-0.00347899
-0.00413277
-0.00485235
-0.00563662
-0.006483
-0.00738741
-0.0083444
-0.00934725
-0.0103881
-0.0114583
-0.0125483
-0.0136479
-0.014747
-0.0158348
-0.0169008
-0.0179347
-0.0189264
-0.0198663
-0.0207455
-0.0215556
-0.0222891
-0.0229393
-0.0235003
-0.0239672
-0.024336
-0.0246037
-0.0247681
-0.0248282
-0.0247836
-0.0246357
-0.0243861
-0.0240376
-0.0235942
-0.0230606
-0.0224429
-0.0217481
-0.0209841
-0.0201603
-0.0192866
-0.0183744
-0.0174356
-0.0164833
-0.0155308
-0.0145922
-0.0136814
-0.0128121
-0.0119974
-0.0112489
-0.010577
-0.00998972
-0.00949245
-0.00908787
-0.00877558
-0.00855212
-0.0084112
-0.00834408
-0.0083401
-0.00838743
-0.00847374
-0.00858697
-0.00871596
-0.00885098
-0.00898406
-0.00910916
-0.00922214
-0.00932068
-0.00940396
-0.00947239
-0.00952723
-0.00957029
-0.00960354
-0.0096288
-0.00964749
-0.00966042
-0.00966782
-0.00966942
-0.00966282
-0.00964307
0.00140802
0.00128875
0.00119949
0.00111878
0.00103632
0.000949939
0.000857372
0.000756308
0.000644701
0.000520423
0.000380931
0.000223069
4.29786e-05
-0.000163925
-0.000402878
-0.000679622
-0.00100021
-0.00137078
-0.00179727
-0.00228516
-0.00283916
-0.003463
-0.00415911
-0.00492851
-0.00577066
-0.00668342
-0.00766302
-0.00870417
-0.0098002
-0.0109432
-0.012124
-0.013333
-0.0145595
-0.0157926
-0.0170211
-0.0182338
-0.0194197
-0.0205679
-0.0216682
-0.0227108
-0.0236867
-0.0245875
-0.025406
-0.0261354
-0.02677
-0.0273052
-0.027737
-0.0280626
-0.0282798
-0.0283874
-0.0283848
-0.0282732
-0.0280537
-0.0277285
-0.0273008
-0.0267746
-0.0261548
-0.0254472
-0.0246588
-0.0237973
-0.0228718
-0.0218921
-0.0208693
-0.0198155
-0.0187437
-0.0176676
-0.0166017
-0.0155606
-0.0145591
-0.0136113
-0.0127304
-0.0119281
-0.0112138
-0.0105946
-0.0100744
-0.00965395
-0.00933054
-0.00909843
-0.00894906
-0.0088717
-0.00885419
-0.00888375
-0.00894777
-0.00903454
-0.00913382
-0.00923718
-0.00933814
-0.0094322
-0.00951662
-0.00959017
-0.0096528
-0.0097052
-0.00974849
-0.00978387
-0.00981232
-0.00983436
-0.00985003
-0.00985901
-0.00985933
-0.00984726
0.0015602
0.00141849
0.00131674
0.00122791
0.00113861
0.00104548
0.000945128
0.000834238
0.000709887
0.000569147
0.000408692
0.00022457
1.21107e-05
-0.00023408
-0.000520023
-0.000852185
-0.00123723
-0.00168176
-0.00219197
-0.00277339
-0.00343051
-0.00416659
-0.00498336
-0.00588092
-0.00685761
-0.00791007
-0.00903323
-0.0102205
-0.0114637
-0.0127538
-0.0140804
-0.0154326
-0.0167989
-0.0181673
-0.0195261
-0.0208634
-0.0221676
-0.0234277
-0.0246334
-0.0257748
-0.026843
-0.0278299
-0.0287284
-0.0295322
-0.0302359
-0.0308351
-0.0313263
-0.0317066
-0.0319743
-0.0321279
-0.0321669
-0.0320923
-0.0319048
-0.0316062
-0.0311989
-0.0306861
-0.0300717
-0.0293604
-0.0285578
-0.0276704
-0.0267057
-0.0256721
-0.0245792
-0.0234377
-0.0222597
-0.021058
-0.019847
-0.0186414
-0.017457
-0.0163096
-0.0152148
-0.0141877
-0.0132418
-0.0123886
-0.011637
-0.0109925
-0.0104575
-0.0100301
-0.00970529
-0.00947453
-0.00932683
-0.00924943
-0.00922872
-0.00925118
-0.00930419
-0.00937662
-0.00945926
-0.00954494
-0.00962854
-0.00970671
-0.00977764
-0.00984059
-0.00989554
-0.00994283
-0.00998276
-0.0100154
-0.0100405
-0.0100576
-0.010065
-0.0100597
0.00169585
0.00153133
0.00141708
0.00132019
0.00122385
0.00112331
0.00101393
0.000891271
0.000751449
0.000590663
0.00040473
0.000188843
-6.25224e-05
-0.000355593
-0.000697162
-0.00109436
-0.00155438
-0.00208411
-0.00268987
-0.00337697
-0.00414949
-0.00500993
-0.00595911
-0.00699596
-0.00811753
-0.00931906
-0.010594
-0.0119343
-0.0133305
-0.0147719
-0.0162472
-0.017744
-0.01925
-0.0207525
-0.0222388
-0.0236967
-0.0251143
-0.0264806
-0.0277851
-0.0290183
-0.0301715
-0.031237
-0.0322081
-0.033079
-0.0338449
-0.0345018
-0.0350465
-0.0354767
-0.0357908
-0.0359874
-0.0360657
-0.0360275
-0.0358729
-0.0356031
-0.0352199
-0.0347258
-0.034124
-0.0334179
-0.0326119
-0.0317111
-0.0307214
-0.0296495
-0.0285034
-0.027292
-0.0260259
-0.0247166
-0.0233772
-0.0220221
-0.0206671
-0.0193288
-0.0180246
-0.016772
-0.0155881
-0.014489
-0.0134884
-0.0125977
-0.0118245
-0.0111727
-0.0106417
-0.0102269
-0.0099197
-0.00970853
-0.0095796
-0.00951805
-0.00950899
-0.00953846
-0.00959411
-0.00966564
-0.00974497
-0.00982612
-0.00990503
-0.00997911
-0.0100468
-0.0101074
-0.0101603
-0.0102048
-0.0102405
-0.0102663
-0.0102808
-0.0102816
0.00180774
0.00162028
0.00149367
0.00138878
0.00128509
0.0011763
0.00105639
0.000919726
0.00076138
0.000576612
0.000360325
0.000106811
-0.000190334
-0.000538161
-0.000944188
-0.00141612
-0.00196154
-0.00258747
-0.00330008
-0.0041043
-0.00500346
-0.00599914
-0.00709094
-0.00827645
-0.00955122
-0.0109089
-0.0123414
-0.0138391
-0.015391
-0.016985
-0.0186085
-0.0202481
-0.0218904
-0.023522
-0.0251297
-0.026701
-0.028224
-0.0296876
-0.0310816
-0.0323968
-0.0336252
-0.0347595
-0.0357937
-0.0367227
-0.0375421
-0.0382487
-0.0388397
-0.0393133
-0.0396682
-0.0399033
-0.0400175
-0.0400146
-0.0398923
-0.0396521
-0.0392955
-0.0388244
-0.0382411
-0.0375483
-0.036749
-0.035847
-0.0348465
-0.0337528
-0.0325717
-0.0313106
-0.0299776
-0.0285828
-0.0271374
-0.0256545
-0.0241489
-0.0226372
-0.0211373
-0.0196684
-0.0182502
-0.0169025
-0.015644
-0.0144916
-0.0134593
-0.0125572
-0.0117909
-0.011161
-0.0106632
-0.0102886
-0.0100244
-0.0098553
-0.00976473
-0.00973591
-0.00975313
-0.00980248
-0.00987234
-0.00995351
-0.0100391
-0.0101241
-0.0102052
-0.01028
-0.0103469
-0.0104045
-0.0104515
-0.0104867
-0.0105085
-0.0105149
0.00188803
0.00167785
0.00153914
0.00142627
0.0013148
0.00119673
0.00106457
0.000911387
0.00073118
0.000518207
0.000266416
-3.08266e-05
-0.000380804
-0.000791354
-0.00127064
-0.00182683
-0.00246769
-0.0032002
-0.00403016
-0.0049618
-0.00599752
-0.00713767
-0.00838044
-0.00972184
-0.0111558
-0.0126742
-0.0142672
-0.0159236
-0.0176309
-0.0193755
-0.0211435
-0.0229205
-0.0246923
-0.026445
-0.028165
-0.0298396
-0.0314571
-0.0330066
-0.0344784
-0.0358641
-0.037156
-0.0383479
-0.0394344
-0.0404111
-0.0412745
-0.0420218
-0.042651
-0.0431608
-0.0435501
-0.0438191
-0.0439687
-0.0439952
-0.0439026
-0.0436914
-0.0433626
-0.0429173
-0.0423572
-0.0416841
-0.0409002
-0.0400077
-0.0390098
-0.0379097
-0.0367119
-0.0354213
-0.0340442
-0.0325881
-0.0310624
-0.029478
-0.0278481
-0.0261878
-0.0245146
-0.0228481
-0.0212095
-0.0196212
-0.0181059
-0.0166858
-0.0153812
-0.014209
-0.0131822
-0.0123082
-0.0115886
-0.011019
-0.0105895
-0.0102859
-0.0100905
-0.00998446
-0.00994859
-0.00996507
-0.0100182
-0.0100948
-0.0101845
-0.0102795
-0.0103739
-0.0104634
-0.0105452
-0.0106166
-0.0106758
-0.010721
-0.0107503
-0.0107621
0.0019285
0.00169621
0.00154575
0.00142487
0.00130507
0.00117651
0.00103015
0.000857716
0.000652087
0.000406488
0.000113887
-0.000233283
-0.000643152
-0.00112428
-0.00168536
-0.00233485
-0.00308054
-0.00392911
-0.00488572
-0.00595368
-0.00713417
-0.0084261
-0.00982601
-0.0113281
-0.0129246
-0.0146054
-0.016359
-0.0181724
-0.0200315
-0.0219214
-0.023827
-0.0257331
-0.0276247
-0.0294875
-0.031308
-0.0330735
-0.0347725
-0.0363949
-0.0379317
-0.0393749
-0.040718
-0.0419555
-0.0430829
-0.0440967
-0.0449941
-0.0457731
-0.0464323
-0.0469708
-0.0473882
-0.0476847
-0.0478612
-0.0479165
-0.047852
-0.0476687
-0.0473675
-0.0469493
-0.0464153
-0.0457666
-0.0450045
-0.0441305
-0.0431461
-0.0420535
-0.0408551
-0.0395541
-0.0381546
-0.0366619
-0.0350826
-0.0334253
-0.0317007
-0.0299219
-0.0281046
-0.0262675
-0.0244319
-0.0226214
-0.0208614
-0.0191784
-0.0175983
-0.016145
-0.0148391
-0.0136963
-0.0127257
-0.0119297
-0.0113033
-0.010835
-0.0105079
-0.0103019
-0.0101947
-0.0101645
-0.0101911
-0.0102567
-0.0103467
-0.0104495
-0.0105564
-0.0106608
-0.0107579
-0.0108439
-0.010916
-0.0109718
-0.0110092
-0.0110265
0.0019208
0.00166734
0.00150558
0.00137663
0.00124782
0.00110738
0.000944681
0.000750101
0.000515351
0.000232609
-0.000106142
-0.000509374
-0.000986012
-0.00154523
-0.00219613
-0.00294726
-0.00380621
-0.0047791
-0.00587022
-0.00708169
-0.00841322
-0.00986203
-0.0114228
-0.0130879
-0.0148474
-0.0166895
-0.0186007
-0.0205662
-0.0225705
-0.0245975
-0.026631
-0.028655
-0.0306542
-0.0326142
-0.0345215
-0.0363639
-0.0381305
-0.0398119
-0.0413999
-0.0428876
-0.0442694
-0.0455407
-0.0466979
-0.0477385
-0.0486604
-0.0494623
-0.0501436
-0.0507039
-0.0511431
-0.0514619
-0.0516607
-0.0517399
-0.0517003
-0.0515427
-0.051268
-0.0508769
-0.0503702
-0.0497486
-0.0490128
-0.0481634
-0.0472011
-0.0461267
-0.0449412
-0.0436462
-0.0422437
-0.0407367
-0.0391294
-0.0374276
-0.0356391
-0.0337743
-0.0318462
-0.0298715
-0.0278699
-0.0258648
-0.0238827
-0.0219527
-0.020105
-0.01837
-0.0167757
-0.0153466
-0.0141008
-0.0130493
-0.0121942
-0.0115293
-0.0110406
-0.010708
-0.0105075
-0.0104135
-0.0104008
-0.0104466
-0.0105313
-0.0106388
-0.0107568
-0.0108755
-0.0109881
-0.0110892
-0.0111749
-0.011242
-0.011288
-0.0113114
0.00185661
0.00158327
0.00141075
0.0012736
0.00113498
0.000981142
0.00079986
0.000580132
0.00031251
-1.1871e-05
-0.000401995
-0.000867196
-0.0014171
-0.00206139
-0.00280937
-0.00366951
-0.00464893
-0.00575297
-0.00698477
-0.00834499
-0.00983167
-0.0114401
-0.013163
-0.0149906
-0.016911
-0.0189102
-0.020973
-0.0230831
-0.0252233
-0.0273765
-0.0295256
-0.0316544
-0.0337473
-0.03579
-0.0377694
-0.0396741
-0.0414939
-0.0432204
-0.0448463
-0.0463659
-0.0477745
-0.0490686
-0.0502455
-0.0513034
-0.0522413
-0.0530584
-0.0537547
-0.0543302
-0.0547856
-0.0551213
-0.0553384
-0.0554373
-0.055419
-0.0552844
-0.0550341
-0.054669
-0.0541894
-0.0535958
-0.0528885
-0.0520675
-0.0511328
-0.0500843
-0.0489219
-0.0476457
-0.0462559
-0.0447537
-0.0431409
-0.0414205
-0.0395974
-0.0376787
-0.0356744
-0.0335979
-0.0314663
-0.0293013
-0.0271284
-0.0249775
-0.0228817
-0.0208757
-0.0189946
-0.0172712
-0.0157334
-0.014402
-0.0132889
-0.0123956
-0.0117134
-0.0112247
-0.0109052
-0.0107262
-0.0106583
-0.0106729
-0.0107447
-0.0108524
-0.0109788
-0.011111
-0.0112389
-0.0113555
-0.0114554
-0.0115346
-0.01159
-0.0116204
0.00172791
0.00143632
0.00125365
0.00110811
0.000958793
0.000789953
0.000587761
0.000339869
3.5683e-05
-0.000334689
-0.000781152
-0.00131383
-0.00194295
-0.00267853
-0.0035299
-0.00450522
-0.00561091
-0.00685126
-0.00822801
-0.00974015
-0.0113838
-0.0131522
-0.0150358
-0.0170228
-0.019099
-0.0212487
-0.0234546
-0.0256989
-0.0279634
-0.0302299
-0.0324809
-0.0346999
-0.0368715
-0.0389819
-0.0410186
-0.042971
-0.0448301
-0.0465884
-0.0482399
-0.0497798
-0.0512046
-0.0525118
-0.0536995
-0.0547669
-0.0557134
-0.0565392
-0.0572444
-0.0578299
-0.0582963
-0.0586446
-0.0588757
-0.0589907
-0.0589904
-0.0588758
-0.0586476
-0.0583063
-0.0578525
-0.0572864
-0.0566079
-0.0558169
-0.0549127
-0.0538946
-0.0527618
-0.0515133
-0.0501481
-0.0486655
-0.0470653
-0.0453481
-0.0435161
-0.0415731
-0.0395255
-0.0373831
-0.0351595
-0.0328729
-0.0305467
-0.0282094
-0.0258946
-0.0236399
-0.0214851
-0.0194705
-0.0176336
-0.016006
-0.0146105
-0.0134591
-0.0125512
-0.0118747
-0.0114071
-0.0111188
-0.010976
-0.0109449
-0.0109939
-0.0110954
-0.0112268
-0.0113706
-0.0115135
-0.0116459
-0.0117607
-0.0118527
-0.0119185
-0.0119571
0.00152721
0.0012193
0.00102715
0.000873007
0.000712038
0.000526543
0.000301125
2.21258e-05
-0.000322157
-0.000742599
-0.00124997
-0.00185507
-0.00256861
-0.00340076
-0.00436069
-0.00545599
-0.00669217
-0.00807218
-0.00959616
-0.0112612