/*--------------------------------*- C++ -*----------------------------------*\
  =========                 |
  \\      /  F ield         | OpenFOAM: The Open Source CFD Toolbox
   \\    /   O peration     | Website:  https://openfoam.org
    \\  /    A nd           | Version:  9
     \\/     M anipulation  |
\*---------------------------------------------------------------------------*/
FoamFile
{
    format      ascii;
    class       surfaceScalarField;
    location    "3";
    object      phi;
}
// * * * * * * * * * * * * * * * * * * * * * * * * * * * * * * * * * * * * * //

dimensions      [0 3 -1 0 0 0 0];

internalField   nonuniform List<scalar> 
19800
(
7.6112e-11
-7.65183e-11
9.31869e-10
-8.55735e-10
2.44772e-09
-1.51584e-09
4.3377e-09
-1.88998e-09
6.36231e-09
-2.02462e-09
8.34205e-09
-1.97973e-09
1.01501e-08
-1.80805e-09
1.1703e-08
-1.55291e-09
1.29511e-08
-1.24809e-09
1.387e-08
-9.1894e-10
1.44536e-08
-5.83598e-10
1.47076e-08
-2.53956e-10
1.46443e-08
6.32421e-11
1.42784e-08
3.65968e-10
1.36228e-08
6.5555e-10
1.26869e-08
9.35951e-10
1.1474e-08
1.21287e-09
9.98116e-09
1.49284e-09
8.19871e-09
1.78246e-09
6.11094e-09
2.08777e-09
3.69717e-09
2.41377e-09
9.32969e-10
2.7642e-09
-2.2083e-09
3.14127e-09
-5.75408e-09
3.54577e-09
-9.73113e-09
3.97705e-09
-1.41643e-08
4.43315e-09
-1.90752e-08
4.91091e-09
-2.44812e-08
5.40604e-09
-3.03944e-08
5.91318e-09
-3.68204e-08
6.42595e-09
-4.37574e-08
6.93698e-09
-5.11953e-08
7.43792e-09
-5.91148e-08
7.91953e-09
-6.74866e-08
8.37175e-09
-7.62703e-08
8.78378e-09
-8.54147e-08
9.14432e-09
-9.48564e-08
9.44171e-09
-1.04521e-07
9.66416e-09
-1.14321e-07
9.80003e-09
-1.24159e-07
9.83811e-09
-1.33927e-07
9.7679e-09
-1.43506e-07
9.57992e-09
-1.52772e-07
9.26602e-09
-1.61592e-07
8.81967e-09
-1.69828e-07
8.23627e-09
-1.77342e-07
7.51338e-09
-1.83993e-07
6.65104e-09
-1.89645e-07
5.65194e-09
-1.94167e-07
4.52191e-09
-1.97437e-07
3.27042e-09
-1.99347e-07
1.91005e-09
-1.99806e-07
4.58852e-10
-1.98715e-07
-1.0905e-09
-1.96038e-07
-2.67795e-09
-1.91736e-07
-4.30172e-09
-1.85805e-07
-5.93094e-09
-1.78268e-07
-7.53665e-09
-1.6918e-07
-9.08847e-09
-1.58625e-07
-1.05551e-08
-1.4672e-07
-1.19051e-08
-1.33612e-07
-1.31079e-08
-1.19477e-07
-1.41348e-08
-1.04517e-07
-1.49601e-08
-8.8955e-08
-1.55619e-08
-7.30316e-08
-1.59234e-08
-5.69978e-08
-1.60338e-08
-4.11089e-08
-1.58889e-08
-2.56173e-08
-1.54917e-08
-1.07648e-08
-1.48524e-08
3.22418e-09
-1.3989e-08
1.61509e-08
-1.29267e-08
2.78441e-08
-1.16932e-08
3.81693e-08
-1.03251e-08
4.70294e-08
-8.86012e-09
5.43681e-08
-7.33871e-09
6.01683e-08
-5.80026e-09
6.44511e-08
-4.28277e-09
6.72724e-08
-2.82133e-09
6.87187e-08
-1.44627e-09
6.89012e-08
-1.8247e-10
6.79499e-08
9.5132e-10
6.60071e-08
1.94273e-09
6.32213e-08
2.78579e-09
5.97411e-08
3.4802e-09
5.57102e-08
4.03096e-09
5.12628e-08
4.4474e-09
4.65207e-08
4.74203e-09
4.15915e-08
4.92926e-09
3.65675e-08
5.024e-09
3.15276e-08
5.03988e-09
2.65403e-08
4.98732e-09
2.16691e-08
4.87117e-09
1.6981e-08
4.68809e-09
1.25573e-08
4.42373e-09
8.5071e-09
4.0502e-09
4.98149e-09
3.52561e-09
2.1812e-09
2.8003e-09
3.43192e-10
1.83801e-09
-3.40327e-10
6.83518e-10
-3.40329e-10
8.5356e-10
-9.30056e-10
3.29038e-09
-3.29255e-09
6.88631e-09
-5.11178e-09
1.11656e-08
-6.16932e-09
1.56814e-08
-6.54037e-09
2.00602e-08
-6.35848e-09
2.40134e-08
-5.76124e-09
2.73331e-08
-4.87257e-09
2.98806e-08
-3.79563e-09
3.15734e-08
-2.61178e-09
3.23714e-08
-1.38152e-09
3.2263e-08
-1.4558e-10
3.12565e-08
1.06978e-09
2.93656e-08
2.2568e-09
2.66048e-08
3.41633e-09
2.29816e-08
4.55921e-09
1.84924e-08
5.70202e-09
1.3121e-08
6.86428e-09
6.83756e-09
8.06589e-09
-3.99715e-10
9.32503e-09
-8.64234e-09
1.06564e-08
-1.79483e-08
1.20701e-08
-2.83782e-08
1.35712e-08
-3.9992e-08
1.51595e-08
-5.28444e-08
1.68295e-08
-6.6982e-08
1.85708e-08
-8.24395e-08
2.03684e-08
-9.92367e-08
2.22032e-08
-1.17376e-07
2.40521e-08
-1.36838e-07
2.58883e-08
-1.57583e-07
2.76817e-08
-1.79544e-07
2.9399e-08
-2.02629e-07
3.10045e-08
-2.26717e-07
3.24602e-08
-2.5166e-07
3.37269e-08
-2.7728e-07
3.47644e-08
-3.03372e-07
3.5533e-08
-3.29701e-07
3.59938e-08
-3.56011e-07
3.61101e-08
-3.82022e-07
3.58483e-08
-4.07432e-07
3.51788e-08
-4.31929e-07
3.40769e-08
-4.55187e-07
3.25238e-08
-4.76875e-07
3.05074e-08
-4.96661e-07
2.80227e-08
-5.14221e-07
2.50729e-08
-5.29239e-07
2.16692e-08
-5.41419e-07
1.78319e-08
-5.50488e-07
1.35907e-08
-5.56203e-07
8.9856e-09
-5.58359e-07
4.06585e-09
-5.568e-07
-1.09992e-09
-5.5138e-07
-6.51105e-09
-5.42037e-07
-1.20203e-08
-5.28764e-07
-1.75749e-08
-5.11605e-07
-2.309e-08
-4.90667e-07
-2.84751e-08
-4.66118e-07
-3.3637e-08
-4.38192e-07
-3.84812e-08
-4.07183e-07
-4.29143e-08
-3.73444e-07
-4.68464e-08
-3.37385e-07
-5.01936e-08
-2.99464e-07
-5.28812e-08
-2.6018e-07
-5.48458e-08
-2.20065e-07
-5.60387e-08
-1.79671e-07
-5.64277e-08
-1.3956e-07
-5.59998e-08
-1.0029e-07
-5.47621e-08
-6.23996e-08
-5.27427e-08
-2.63975e-08
-4.99911e-08
7.25253e-09
-4.65767e-08
3.81467e-08
-4.25874e-08
6.59442e-08
-3.81227e-08
9.03823e-08
-3.32982e-08
1.1128e-07
-2.82368e-08
1.28541e-07
-2.3061e-08
1.4215e-07
-1.78921e-08
1.52174e-07
-1.28454e-08
1.58753e-07
-8.02445e-09
1.62088e-07
-3.51797e-09
1.62437e-07
6.0205e-10
1.60097e-07
4.28345e-09
1.5539e-07
7.49292e-09
1.48654e-07
1.02161e-08
1.40228e-07
1.24565e-08
1.30443e-07
1.42324e-08
1.19611e-07
1.55742e-08
1.0802e-07
1.65202e-08
9.59322e-08
1.71117e-08
8.35847e-08
1.73874e-08
7.11949e-08
1.73771e-08
5.89717e-08
1.70944e-08
4.71297e-08
1.65301e-08
3.59084e-08
1.5645e-08
2.55912e-08
1.43674e-08
1.65193e-08
1.25976e-08
9.08744e-09
1.02321e-08
3.70568e-09
7.21976e-09
7.08036e-10
3.68116e-09
3.67706e-10
1.52076e-09
-2.4508e-09
5.13153e-09
-6.90333e-09
1.01229e-08
-1.01031e-08
1.5863e-08
-1.19094e-08
2.17839e-08
-1.24613e-08
2.74044e-08
-1.1979e-08
3.23404e-08
-1.06972e-08
3.63025e-08
-8.83463e-09
3.90862e-08
-6.57931e-09
4.05579e-08
-4.08352e-09
4.06394e-08
-1.46304e-09
3.92928e-08
1.20105e-09
3.65035e-08
3.85908e-09
3.22706e-08
6.48966e-09
2.65936e-08
9.09333e-09
1.94649e-08
1.16879e-08
1.08645e-08
1.43024e-08
7.56993e-10
1.69718e-08
-1.09085e-08
1.97314e-08
-2.41964e-08
2.26129e-08
-3.91809e-08
2.56408e-08
-5.59411e-08
2.88303e-08
-7.45557e-08
3.21858e-08
-9.50966e-08
3.57005e-08
-1.17624e-07
3.93567e-08
-1.42179e-07
4.31262e-08
-1.68782e-07
4.69711e-08
-1.97423e-07
5.08446e-08
-2.28063e-07
5.46918e-08
-2.60625e-07
5.84504e-08
-2.94996e-07
6.20523e-08
-3.3102e-07
6.54237e-08
-3.68503e-07
6.84872e-08
-4.07206e-07
7.11628e-08
-4.46849e-07
7.33699e-08
-4.87113e-07
7.50288e-08
-5.27643e-07
7.60629e-08
-5.6805e-07
7.64008e-08
-6.07918e-07
7.59777e-08
-6.46807e-07
7.47379e-08
-6.84265e-07
7.26361e-08
-7.19827e-07
6.9639e-08
-7.53029e-07
6.57266e-08
-7.83415e-07
6.0893e-08
-8.1054e-07
5.51474e-08
-8.33981e-07
4.85143e-08
-8.53346e-07
4.10338e-08
-8.68276e-07
3.27622e-08
-8.78457e-07
2.37712e-08
-8.83621e-07
1.41505e-08
-8.83578e-07
4.02232e-09
-8.78117e-07
-6.56079e-09
-8.67194e-07
-1.74336e-08
-8.50771e-07
-2.84438e-08
-8.28894e-07
-3.94516e-08
-8.01684e-07
-5.03008e-08
-7.69331e-07
-6.08277e-08
-7.32103e-07
-7.0865e-08
-6.90339e-07
-8.0245e-08
-6.44451e-07
-8.88029e-08
-5.94916e-07
-9.63808e-08
-5.42278e-07
-1.02832e-07
-4.87133e-07
-1.08025e-07
-4.3013e-07
-1.11849e-07
-3.71952e-07
-1.14216e-07
-3.13312e-07
-1.15068e-07
-2.54934e-07
-1.14378e-07
-1.97542e-07
-1.12153e-07
-1.41846e-07
-1.08439e-07
-8.85223e-08
-1.03315e-07
-3.82003e-08
-9.68987e-08
8.55209e-09
-8.93398e-08
5.12473e-08
-8.08179e-08
8.94754e-08
-7.15263e-08
1.22935e-07
-6.16968e-08
1.51424e-07
-5.15493e-08
1.74843e-07
-4.13118e-08
1.93204e-07
-3.12061e-08
2.06616e-07
-2.1436e-08
2.1528e-07
-1.21828e-08
2.19482e-07
-3.59983e-09
2.19573e-07
4.19248e-09
2.15955e-07
1.11109e-08
2.09067e-07
1.71042e-08
1.99367e-07
2.2157e-08
1.87315e-07
2.62843e-08
1.73363e-07
2.95258e-08
1.57944e-07
3.19391e-08
1.41465e-07
3.35906e-08
1.24308e-07
3.4545e-08
1.06831e-07
3.48537e-08
8.93842e-08
3.45415e-08
7.23195e-08
3.35948e-08
5.60126e-08
3.19519e-08
4.08797e-08
2.95004e-08
2.73885e-08
2.60887e-08
1.60539e-08
2.15667e-08
7.40744e-09
1.58662e-08
1.93064e-09
9.15795e-09
2.29835e-09
1.91673e-09
-4.36753e-09
6.24617e-09
-1.12328e-08
1.20203e-08
-1.58772e-08
1.84638e-08
-1.83529e-08
2.49191e-08
-1.89166e-08
3.08386e-08
-1.78985e-08
3.57825e-08
-1.5641e-08
3.94115e-08
-1.24636e-08
4.14767e-08
-8.64451e-09
4.18051e-08
-4.41195e-09
4.0284e-08
5.80625e-11
3.68444e-08
4.64068e-09
3.14451e-08
9.25832e-09
2.40597e-08
1.38751e-08
1.46636e-08
1.84894e-08
3.22625e-09
2.31253e-08
-1.02953e-08
2.7824e-08
-2.59585e-08
3.2635e-08
-4.38348e-08
3.76077e-08
-6.40067e-08
4.27848e-08
-8.65626e-08
4.81967e-08
-1.1159e-07
5.38578e-08
-1.39169e-07
5.97646e-08
-1.69363e-07
6.58947e-08
-2.02214e-07
7.22072e-08
-2.37731e-07
7.86438e-08
-2.7589e-07
8.51301e-08
-3.16623e-07
9.15771e-08
-3.59814e-07
9.78835e-08
-4.05301e-07
1.03937e-07
-4.52866e-07
1.09617e-07
-5.0224e-07
1.14797e-07
-5.531e-07
1.19348e-07
-6.05075e-07
1.23137e-07
-6.57744e-07
1.26039e-07
-7.10647e-07
1.27932e-07
-7.63288e-07
1.28704e-07
-8.15142e-07
1.28255e-07
-8.65665e-07
1.265e-07
-9.14301e-07
1.23374e-07
-9.60494e-07
1.18829e-07
-1.00369e-06
1.12838e-07
-1.04336e-06
1.05397e-07
-1.079e-06
9.65258e-08
-1.11011e-06
8.62639e-08
-1.13627e-06
7.46753e-08
-1.15709e-06
6.18451e-08
-1.1722e-06
4.78803e-08
-1.18134e-06
3.29075e-08
-1.18426e-06
1.70673e-08
-1.18085e-06
6.11697e-10
-1.1709e-06
-1.65107e-08
-1.15445e-06
-3.38789e-08
-1.13153e-06
-5.13626e-08
-1.10224e-06
-6.87386e-08
-1.06677e-06
-8.57766e-08
-1.02536e-06
-1.0224e-07
-9.78332e-07
-1.17889e-07
-9.26093e-07
-1.32484e-07
-8.69106e-07
-1.4579e-07
-8.07904e-07
-1.57583e-07
-7.43084e-07
-1.67652e-07
-6.75302e-07
-1.75808e-07
-6.05262e-07
-1.81889e-07
-5.33713e-07
-1.85765e-07
-4.61435e-07
-1.87346e-07
-3.89228e-07
-1.86585e-07
-3.17898e-07
-1.83483e-07
-2.48246e-07
-1.78091e-07
-1.81046e-07
-1.70515e-07
-1.17034e-07
-1.6091e-07
-5.68916e-08
-1.49483e-07
-1.22823e-09
-1.36481e-07
4.94461e-08
-1.22201e-07
9.46948e-08
-1.06945e-07
1.34203e-07
-9.10578e-08
1.67769e-07
-7.48775e-08
1.95308e-07
-5.87449e-08
2.16851e-07
-4.29789e-08
2.3254e-07
-2.78721e-08
2.4262e-07
-1.36802e-08
2.4743e-07
-6.16946e-10
2.47376e-07
1.11644e-08
2.42932e-07
2.15481e-08
2.34609e-07
3.048e-08
2.22943e-07
3.79509e-08
2.08476e-07
4.39927e-08
1.91746e-07
4.86689e-08
1.73276e-07
5.20609e-08
1.53568e-07
5.42529e-08
1.33107e-07
5.53143e-08
1.12368e-07
5.52813e-08
9.18231e-08
5.41391e-08
7.19656e-08
5.18094e-08
5.33189e-08
4.81471e-08
3.64521e-08
4.29555e-08
2.19847e-08
3.6034e-08
1.0585e-08
2.7266e-08
2.97191e-09
1.67711e-08
5.27026e-09
2.08523e-09
-6.45276e-09
6.69379e-09
-1.58413e-08
1.26764e-08
-2.18599e-08
1.91438e-08
-2.48203e-08
2.53714e-08
-2.51442e-08
3.07694e-08
-2.32965e-08
3.48659e-08
-1.97375e-08
3.72932e-08
-1.48909e-08
3.7774e-08
-9.12535e-09
3.61067e-08
-2.74458e-09
3.21489e-08
4.01582e-09
2.58021e-08
1.09875e-08
1.69956e-08
1.80648e-08
5.67317e-09
2.51975e-08
-8.21813e-09
3.23807e-08
-2.47365e-08
3.96437e-08
-4.39501e-08
4.70376e-08
-6.59384e-08
5.46233e-08
-9.07901e-08
6.24595e-08
-1.18599e-07
7.05937e-08
-1.49456e-07
7.90542e-08
-1.83444e-07
8.78453e-08
-2.20623e-07
9.69441e-08
-2.61029e-07
1.063e-07
-3.04656e-07
1.15835e-07
-3.51458e-07
1.25446e-07
-4.01335e-07
1.35007e-07
-4.54131e-07
1.44373e-07
-5.0963e-07
1.53382e-07
-5.67552e-07
1.6186e-07
-6.27558e-07
1.69623e-07
-6.89246e-07
1.76485e-07
-7.52159e-07
1.8226e-07
-8.15789e-07
1.86767e-07
-8.79586e-07
1.89837e-07
-9.42967e-07
1.91313e-07
-1.00532e-06
1.91059e-07
-1.06603e-06
1.88964e-07
-1.12447e-06
1.8494e-07
-1.18002e-06
1.78927e-07
-1.23209e-06
1.70898e-07
-1.28011e-06
1.60851e-07
-1.32353e-06
1.48817e-07
-1.36186e-06
1.34857e-07
-1.39465e-06
1.19058e-07
-1.42151e-06
1.01534e-07
-1.44209e-06
8.24259e-08
-1.45611e-06
6.18968e-08
-1.46333e-06
4.01327e-08
-1.46361e-06
1.7345e-08
-1.45677e-06
-6.22789e-09
-1.44286e-06
-3.04183e-08
-1.42185e-06
-5.48909e-08
-1.39382e-06
-7.93925e-08
-1.35892e-06
-1.03642e-07
-1.31735e-06
-1.27345e-07
-1.26939e-06
-1.502e-07
-1.21538e-06
-1.71902e-07
-1.15571e-06
-1.92145e-07
-1.09087e-06
-2.1063e-07
-1.02139e-06
-2.27065e-07
-9.47865e-07
-2.4118e-07
-8.70948e-07
-2.52725e-07
-7.91353e-07
-2.61484e-07
-7.09839e-07
-2.6728e-07
-6.27204e-07
-2.69982e-07
-5.44275e-07
-2.69514e-07
-4.61899e-07
-2.65859e-07
-3.80923e-07
-2.59067e-07
-3.02186e-07
-2.49252e-07
-2.26496e-07
-2.366e-07
-1.54619e-07
-2.21359e-07
-8.72589e-08
-2.03842e-07
-2.50464e-08
-1.84413e-07
3.14886e-08
-1.6348e-07
8.19154e-08
-1.41485e-07
1.25909e-07
-1.18871e-07
1.6328e-07
-9.61163e-08
1.93955e-07
-7.36535e-08
2.17982e-07
-5.18991e-08
2.35529e-07
-3.12269e-08
2.46869e-07
-1.19568e-08
2.52378e-07
5.65529e-09
2.52506e-07
2.14201e-08
2.4777e-07
3.52155e-08
2.38734e-07
4.69866e-08
2.25991e-07
5.67366e-08
2.10144e-07
6.45156e-08
1.918e-07
7.04044e-08
1.71558e-07
7.44948e-08
1.50006e-07
7.68665e-08
1.27724e-07
7.75634e-08
1.05293e-07
7.65705e-08
8.33048e-08
7.37974e-08
6.23804e-08
6.90715e-08
4.3183e-08
6.21529e-08
2.64397e-08
5.27773e-08
1.29687e-08
4.07369e-08
3.73332e-09
2.60065e-08
9.00359e-09
2.07572e-09
-8.52847e-09
6.57104e-09
-2.03366e-08
1.22349e-08
-2.75238e-08
1.81057e-08
-3.0691e-08
2.34169e-08
-3.04554e-08
2.75562e-08
-2.74357e-08
3.00366e-08
-2.22179e-08
3.04767e-08
-1.53311e-08
2.85831e-08
-7.23168e-09
2.41336e-08
1.70487e-09
1.69622e-08
1.11873e-08
6.94266e-09
2.1007e-08
-6.02499e-09
3.10325e-08
-2.20274e-08
4.11999e-08
-4.11477e-08
5.1501e-08
-6.34719e-08
6.19679e-08
-8.90923e-08
7.2658e-08
-1.18107e-07
8.36376e-08
-1.50614e-07
9.49671e-08
-1.8671e-07
1.06689e-07
-2.26473e-07
1.18818e-07
-2.69962e-07
1.31334e-07
-3.172e-07
1.44181e-07
-3.68165e-07
1.57265e-07
-4.22785e-07
1.70454e-07
-4.80925e-07
1.83586e-07
-5.42387e-07
1.96469e-07
-6.06902e-07
2.08888e-07
-6.74131e-07
2.2061e-07
-7.43664e-07
2.31393e-07
-8.15027e-07
2.40987e-07
-8.87689e-07
2.49147e-07
-9.61064e-07
2.55635e-07
-1.03453e-06
2.60232e-07
-1.10743e-06
2.62738e-07
-1.1791e-06
2.62981e-07
-1.24886e-06
2.60821e-07
-1.31605e-06
2.56154e-07
-1.38002e-06
2.48912e-07
-1.44016e-06
2.39065e-07
-1.49588e-06
2.26621e-07
-1.54666e-06
2.11625e-07
-1.592e-06
1.94156e-07
-1.63146e-06
1.74325e-07
-1.66468e-06
1.52275e-07
-1.69132e-06
1.28174e-07
-1.71111e-06
1.02218e-07
-1.72384e-06
7.46224e-08
-1.72933e-06
4.56276e-08
-1.72749e-06
1.54996e-08
-1.71822e-06
-1.55018e-08
-1.70154e-06
-4.70938e-08
-1.67749e-06
-7.89426e-08
-1.64615e-06
-1.10731e-07
-1.60767e-06
-1.42122e-07
-1.56225e-06
-1.72768e-07
-1.51014e-06
-2.0231e-07
-1.45165e-06
-2.30386e-07
-1.38717e-06
-2.56629e-07
-1.31712e-06
-2.80677e-07
-1.24201e-06
-3.02177e-07
-1.1624e-06
-3.20792e-07
-1.07891e-06
-3.36212e-07
-9.92234e-07
-3.4816e-07
-9.03112e-07
-3.56401e-07
-8.12336e-07
-3.60757e-07
-7.20741e-07
-3.61109e-07
-6.29189e-07
-3.57411e-07
-5.38562e-07
-3.49693e-07
-4.49746e-07
-3.38069e-07
-3.63611e-07
-3.22735e-07
-2.80997e-07
-3.03973e-07
-2.02696e-07
-2.82143e-07
-1.29433e-07
-2.57677e-07
-6.18497e-08
-2.31063e-07
-4.94087e-10
-2.0284e-07
5.42201e-08
-1.73585e-07
1.01961e-07
-1.43857e-07
1.42546e-07
-1.14239e-07
1.7592e-07
-8.52724e-08
2.02151e-07
-5.74581e-08
2.21431e-07
-3.12366e-08
2.34064e-07
-6.97826e-09
2.40455e-07
1.50289e-08
2.4109e-07
3.45807e-08
2.36526e-07
5.15506e-08
2.2737e-07
6.58927e-08
2.14263e-07
7.76232e-08
1.97864e-07
8.68035e-08
1.78841e-07
9.35173e-08
1.57864e-07
9.78434e-08
1.35601e-07
9.98262e-08
1.12724e-07
9.94478e-08
8.99158e-08
9.66055e-08
6.78866e-08
9.11007e-08
4.73934e-08
8.26462e-08
2.92716e-08
7.08992e-08
1.44846e-08
5.55239e-08
4.20558e-09
3.62855e-08
1.32092e-08
1.9244e-09
-1.04529e-08
5.96274e-09
-2.4375e-08
1.0829e-08
-3.239e-08
1.55333e-08
-3.53953e-08
1.92964e-08
-3.42186e-08
2.15028e-08
-2.96421e-08
2.16658e-08
-2.2381e-08
1.94022e-08
-1.30675e-08
1.44111e-08
-2.24062e-09
6.45732e-09
9.65868e-09
-4.64493e-09
2.22896e-08
-1.90461e-08
3.54082e-08
-3.6874e-08
4.88604e-08
-5.82445e-08
6.25705e-08
-8.32691e-08
7.65255e-08
-1.12059e-07
9.07577e-08
-1.44725e-07
1.05325e-07
-1.81377e-07
1.20289e-07
-2.22113e-07
1.35703e-07
-2.67015e-07
1.5159e-07
-3.16134e-07
1.67937e-07
-3.69482e-07
1.84683e-07
-4.27022e-07
2.01721e-07
-4.88654e-07
2.18897e-07
-5.5421e-07
2.3601e-07
-6.23448e-07
2.52824e-07
-6.96047e-07
2.69069e-07
-7.71612e-07
2.84453e-07
-8.4967e-07
2.98668e-07
-9.2968e-07
3.11403e-07
-1.01104e-06
3.2235e-07
-1.09311e-06
3.31215e-07
-1.1752e-06
3.37725e-07
-1.25661e-06
3.41637e-07
-1.33662e-06
3.42747e-07
-1.41452e-06
3.40889e-07
-1.48965e-06
3.35944e-07
-1.56133e-06
3.27838e-07
-1.62896e-06
3.16544e-07
-1.69198e-06
3.02079e-07
-1.74986e-06
2.84502e-07
-1.80214e-06
2.63913e-07
-1.84843e-06
2.40444e-07
-1.88837e-06
2.14262e-07
-1.92165e-06
1.8556e-07
-1.94804e-06
1.54557e-07
-1.96731e-06
1.21492e-07
-1.97932e-06
8.66272e-08
-1.98393e-06
5.02426e-08
-1.98108e-06
1.26459e-08
-1.9707e-06
-2.58797e-08
-1.95281e-06
-6.49867e-08
-1.92743e-06
-1.04322e-07
-1.89463e-06
-1.43525e-07
-1.85454e-06
-1.82217e-07
-1.8073e-06
-2.20005e-07
-1.75313e-06
-2.56483e-07
-1.69228e-06
-2.91233e-07
-1.62508e-06
-3.23834e-07
-1.55189e-06
-3.53863e-07
-1.47317e-06
-3.80901e-07
-1.38941e-06
-4.04547e-07
-1.3012e-06
-4.2442e-07
-1.20919e-06
-4.40175e-07
-1.11408e-06
-4.51513e-07
-1.01664e-06
-4.5819e-07
-9.1772e-07
-4.60034e-07
-8.18179e-07
-4.56953e-07
-7.18929e-07
-4.48943e-07
-6.20899e-07
-4.36098e-07
-5.2502e-07
-4.18615e-07
-4.32203e-07
-3.9679e-07
-3.43328e-07
-3.71018e-07
-2.59216e-07
-3.41788e-07
-1.80616e-07
-3.09663e-07
-1.08182e-07
-2.75275e-07
-4.24708e-08
-2.39297e-07
1.60952e-08
-2.02423e-07
6.72118e-08
-1.65355e-07
1.10709e-07
-1.2877e-07
1.46553e-07
-9.33021e-08
1.74841e-07
-5.95241e-08
1.95792e-07
-2.79298e-08
2.09752e-07
1.06931e-09
2.17149e-07
2.71832e-08
2.18516e-07
5.01837e-08
2.14449e-07
6.996e-08
2.05599e-07
8.64736e-08
1.92654e-07
9.97477e-08
1.76331e-07
1.09841e-07
1.57357e-07
1.16817e-07
1.36472e-07
1.20711e-07
1.14426e-07
1.21494e-07
9.19822e-08
1.19049e-07
6.99356e-08
1.13147e-07
4.91333e-08
1.03448e-07
3.05132e-08
8.95193e-08
1.51631e-08
7.0874e-08
4.41124e-09
4.70373e-08
1.76204e-08
1.65462e-09
-1.21075e-08
4.93115e-09
-2.76515e-08
8.56293e-09
-3.60218e-08
1.15752e-08
-3.84076e-08
1.32062e-08
-3.58496e-08
1.28588e-08
-2.92946e-08
1.00612e-08
-1.95834e-08
4.43862e-09
-7.44488e-09
-4.30916e-09
6.50716e-09
-1.64255e-08
2.1775e-08
-3.21115e-08
3.79756e-08
-5.1539e-08
5.48357e-08
-7.48609e-08
7.21823e-08
-1.02219e-07
8.99285e-08
-1.33749e-07
1.08055e-07
-1.6958e-07
1.26589e-07
-2.09835e-07
1.4558e-07
-2.54622e-07
1.65076e-07
-3.04026e-07
1.85107e-07
-3.58096e-07
2.05661e-07
-4.16836e-07
2.26677e-07
-4.80192e-07
2.48039e-07
-5.48041e-07
2.6957e-07
-6.20182e-07
2.91038e-07
-6.96333e-07
3.12162e-07
-7.76128e-07
3.32619e-07
-8.59115e-07
3.52056e-07
-9.44765e-07
3.70103e-07
-1.03248e-06
3.86383e-07
-1.1216e-06
4.00526e-07
-1.21143e-06
4.12178e-07
-1.30123e-06
4.21018e-07
-1.39027e-06
4.2676e-07
-1.4778e-06
4.29166e-07
-1.5631e-06
4.2805e-07
-1.64549e-06
4.23278e-07
-1.72432e-06
4.14774e-07
-1.79899e-06
4.02513e-07
-1.86898e-06
3.86525e-07
-1.93378e-06
3.66884e-07
-1.99299e-06
3.43706e-07
-2.04622e-06
3.17145e-07
-2.09316e-06
2.87386e-07
-2.13354e-06
2.54642e-07
-2.16713e-06
2.19149e-07
-2.19373e-06
1.81163e-07
-2.2132e-06
1.40959e-07
-2.2254e-06
9.88274e-08
-2.23023e-06
5.50752e-08
-2.22763e-06
1.00378e-08
-2.21752e-06
-3.59843e-08
-2.1999e-06
-8.26045e-08
-2.17477e-06
-1.29453e-07
-2.14216e-06
-1.76139e-07
-2.10212e-06
-2.22251e-07
-2.05477e-06
-2.67358e-07
-2.00024e-06
-3.11012e-07
-1.93873e-06
-3.52749e-07
-1.87047e-06
-3.92093e-07
-1.79577e-06
-4.28561e-07
-1.715e-06
-4.61669e-07
-1.6286e-06
-4.90946e-07
-1.53709e-06
-5.15935e-07
-1.44105e-06
-5.36214e-07
-1.34116e-06
-5.51405e-07
-1.23816e-06
-5.6119e-07
-1.13287e-06
-5.65325e-07
-1.02616e-06
-5.63655e-07
-9.18984e-07
-5.56123e-07
-8.12296e-07
-5.42787e-07
-7.07088e-07
-5.23822e-07
-6.04352e-07
-4.99526e-07
-5.05055e-07
-4.70315e-07
-4.10125e-07
-4.36718e-07
-3.2042e-07
-3.99368e-07
-2.36717e-07
-3.58978e-07
-1.59686e-07
-3.16328e-07
-8.98772e-08
-2.72232e-07
-2.77122e-08
-2.2752e-07
2.65269e-08
-1.83009e-07
7.26992e-08
-1.39474e-07
1.10804e-07
-9.76293e-08
1.40979e-07
-5.81048e-08
1.63483e-07
-2.14345e-08
1.78706e-07
1.19604e-08
1.87126e-07
4.17635e-08
1.89317e-07
6.7769e-08
1.85924e-07
8.98671e-08
1.77647e-07
1.08025e-07
1.65229e-07
1.22259e-07
1.49443e-07
1.32603e-07
1.31084e-07
1.3907e-07
1.10965e-07
1.41613e-07
8.99241e-08
1.4009e-07
6.88322e-08
1.34239e-07
4.86194e-08
1.23661e-07
3.03125e-08
1.07826e-07
1.50941e-08
8.60924e-08
4.38674e-09
5.77446e-08
2.20072e-08
1.27928e-09
-1.33868e-08
3.51634e-09
-2.98886e-08
5.51083e-09
-3.80163e-08
6.34411e-09
-3.92408e-08
5.30245e-09
-3.4808e-08
1.82927e-09
-2.58215e-08
-4.51731e-09
-1.32368e-08
-1.40939e-08
2.13176e-09
-2.71939e-08
1.96072e-08
-4.4064e-08
3.86451e-08
-6.49174e-08
5.88289e-08
-8.99437e-08
7.98621e-08
-1.19317e-07
1.01556e-07
-1.532e-07
1.23811e-07
-1.91745e-07
1.466e-07
-2.35092e-07
1.69936e-07
-2.83361e-07
1.93849e-07
-3.36646e-07
2.18361e-07
-3.94999e-07
2.43459e-07
-4.58419e-07
2.6908e-07
-5.2684e-07
2.95098e-07
-6.0012e-07
3.21319e-07
-6.78032e-07
3.47482e-07
-7.60257e-07
3.73264e-07
-8.46387e-07
3.98292e-07
-9.35924e-07
4.22155e-07
-1.02829e-06
4.44419e-07
-1.12283e-06
4.64643e-07
-1.21884e-06
4.82394e-07
-1.31558e-06
4.97262e-07
-1.41227e-06
5.08874e-07
-1.50816e-06
5.16904e-07
-1.60248e-06
5.21081e-07
-1.69451e-06
5.212e-07
-1.78358e-06
5.17115e-07
-1.86905e-06
5.08748e-07
-1.95035e-06
4.96079e-07
-2.02699e-06
4.79148e-07
-2.0985e-06
4.58042e-07
-2.16452e-06
4.32896e-07
-2.22469e-06
4.03881e-07
-2.27874e-06
3.71197e-07
-2.32643e-06
3.35073e-07
-2.36754e-06
2.95757e-07
-2.40191e-06
2.53516e-07
-2.42938e-06
2.08631e-07
-2.44982e-06
1.61396e-07
-2.46311e-06
1.12121e-07
-2.46916e-06
6.11256e-08
-2.46788e-06
8.75905e-09
-2.4592e-06
-4.4661e-08
-2.44307e-06
-9.87336e-08
-2.41945e-06
-1.53075e-07
-2.38832e-06
-2.07273e-07
-2.34968e-06
-2.60892e-07
-2.30356e-06
-3.13473e-07
-2.25004e-06
-3.64531e-07
-2.18923e-06
-4.1356e-07
-2.12129e-06
-4.60034e-07
-2.04644e-06
-5.03413e-07
-1.96496e-06
-5.43148e-07
-1.87721e-06
-5.78694e-07
-1.78363e-06
-6.09514e-07
-1.68474e-06
-6.35101e-07
-1.58116e-06
-6.54988e-07
-1.47359e-06
-6.68766e-07
-1.36281e-06
-6.76103e-07
-1.2497e-06
-6.76759e-07
-1.13522e-06
-6.70608e-07
-1.02036e-06
-6.57646e-07
-9.06176e-07
-6.38006e-07
-7.93736e-07
-6.11966e-07
-6.84107e-07
-5.79944e-07
-5.78327e-07
-5.42499e-07
-4.77378e-07
-5.00316e-07
-3.82167e-07
-4.5419e-07
-2.93496e-07
-4.04998e-07
-2.12048e-07
-3.53679e-07
-1.38371e-07
-3.01198e-07
-7.28652e-08
-2.48515e-07
-1.57826e-08
-1.96557e-07
3.27785e-08
-1.4619e-07
7.28667e-08
-9.81931e-08
1.04671e-07
-5.32388e-08
1.28514e-07
-1.18827e-08
1.44834e-07
2.54436e-08
1.54171e-07
5.84325e-08
1.57154e-07
8.68837e-08
1.54486e-07
1.10693e-07
1.46925e-07
1.29819e-07
1.35276e-07
1.44252e-07
1.20377e-07
1.53969e-07
1.03095e-07
1.58894e-07
8.43313e-08
1.58854e-07
6.50251e-08
1.53545e-07
4.61783e-08
1.42508e-07
2.88886e-08
1.25116e-07
1.44007e-08
1.0058e-07
4.17509e-09
6.79702e-08
2.61822e-08
8.04299e-10
-1.41911e-08
1.74185e-09
-3.08261e-08
1.72268e-09
-3.79971e-08
-7.68184e-11
-3.74413e-08
-4.28862e-09
-3.05962e-08
-1.14102e-08
-1.86999e-08
-2.18388e-08
-2.80824e-09
-3.59032e-08
1.61962e-08
-5.38842e-08
3.75882e-08
-7.60281e-08
6.07889e-08
-1.02556e-07
8.53574e-08
-1.33673e-07
1.10979e-07
-1.69568e-07
1.37451e-07
-2.10418e-07
1.64661e-07
-2.56382e-07
1.92564e-07
-3.07598e-07
2.21152e-07
-3.64171e-07
2.50422e-07
-4.2616e-07
2.80351e-07
-4.93567e-07
3.10866e-07
-5.6632e-07
3.41833e-07
-6.44263e-07
3.73042e-07
-7.27149e-07
4.04205e-07
-8.14631e-07
4.34963e-07
-9.06264e-07
4.64897e-07
-1.00151e-06
4.93538e-07
-1.09975e-06
5.20391e-07
-1.20028e-06
5.44953e-07
-1.30236e-06
5.66727e-07
-1.40522e-06
5.85247e-07
-1.50804e-06
6.0009e-07
-1.61006e-06
6.10888e-07
-1.7105e-06
6.17342e-07
-1.80864e-06
6.19224e-07
-1.90382e-06
6.16377e-07
-1.99542e-06
6.08722e-07
-2.08292e-06
5.96243e-07
-2.16583e-06
5.78989e-07
-2.24374e-06
5.57062e-07
-2.31631e-06
5.3061e-07
-2.38323e-06
4.99819e-07
-2.44426e-06
4.64904e-07
-2.49917e-06
4.26106e-07
-2.54778e-06
3.83683e-07
-2.58993e-06
3.37909e-07
-2.62548e-06
2.89068e-07
-2.65431e-06
2.37455e-07
-2.67628e-06
1.83375e-07
-2.69131e-06
1.27145e-07
-2.69927e-06
6.90911e-08
-2.70008e-06
9.56098e-09
-2.69363e-06
-5.11068e-08
-2.67985e-06
-1.12518e-07
-2.65864e-06
-1.74278e-07
-2.62995e-06
-2.35963e-07
-2.59372e-06
-2.97122e-07
-2.54992e-06
-3.57274e-07
-2.49855e-06
-4.15908e-07
-2.43962e-06
-4.72482e-07
-2.37323e-06
-5.2643e-07
-2.29948e-06
-5.77156e-07
-2.21858e-06
-6.24052e-07
-2.13078e-06
-6.66497e-07
-2.03642e-06
-7.03875e-07
-1.93593e-06
-7.35586e-07
-1.82986e-06
-7.61063e-07
-1.71883e-06
-7.79795e-07
-1.60359e-06
-7.91341e-07
-1.48499e-06
-7.9536e-07
-1.36397e-06
-7.91627e-07
-1.24156e-06
-7.80051e-07
-1.11887e-06
-7.60699e-07
-9.97037e-07
-7.33799e-07
-8.77231e-07
-6.9975e-07
-7.60612e-07
-6.59118e-07
-6.48301e-07
-6.12627e-07
-5.41352e-07
-5.61139e-07
-4.4072e-07
-5.05631e-07
-3.47237e-07
-4.47162e-07
-2.61595e-07
-3.8684e-07
-1.84328e-07
-3.25782e-07
-1.15807e-07
-2.65078e-07
-5.62362e-08
-2.05761e-07
-5.65689e-09
-1.48772e-07
3.60463e-08
-9.4942e-08
6.91334e-08
-4.49698e-08
9.40018e-08
5.75211e-10
1.11156e-07
4.12787e-08
1.21211e-07
7.68284e-08
1.24866e-07
1.07038e-07
1.2289e-07
1.31795e-07
1.16111e-07
1.51031e-07
1.05403e-07
1.64677e-07
9.16806e-08
1.72617e-07
7.58965e-08
1.74639e-07
5.90501e-08
1.70392e-07
4.22019e-08
1.59356e-07
2.65011e-08
1.40817e-07
1.32237e-08
1.13858e-07
3.82252e-09
7.73714e-08
3.00048e-08
2.32126e-10
-1.44232e-08
-3.78171e-10
-3.02158e-08
-2.7641e-09
-3.56112e-08
-7.61488e-09
-3.25905e-08
-1.54558e-08
-2.27552e-08
-2.66988e-08
-7.45687e-09
-4.1684e-08
1.21769e-08
-6.07048e-08
3.5217e-08
-8.40244e-08
6.09078e-08
-1.11885e-07
8.86497e-08
-1.44514e-07
1.17986e-07
-1.82123e-07
1.48588e-07
-2.24913e-07
1.8024e-07
-2.73063e-07
2.12811e-07
-3.2673e-07
2.46231e-07
-3.86035e-07
2.80456e-07
-4.51048e-07
3.15436e-07
-5.21778e-07
3.51081e-07
-5.98155e-07
3.87243e-07
-6.80017e-07
4.23696e-07
-7.67105e-07
4.60129e-07
-8.59051e-07
4.96151e-07
-9.55382e-07
5.31295e-07
-1.05553e-06
5.65044e-07
-1.15884e-06
5.96843e-07
-1.26457e-06
6.26125e-07
-1.37195e-06
6.52333e-07
-1.48017e-06
6.74944e-07
-1.5884e-06
6.93484e-07
-1.69586e-06
7.07544e-07
-1.80176e-06
7.16792e-07
-1.9054e-06
7.20979e-07
-2.00611e-06
7.19939e-07
-2.10332e-06
7.13584e-07
-2.1965e-06
7.01905e-07
-2.28522e-06
6.84958e-07
-2.36908e-06
6.62856e-07
-2.44778e-06
6.3576e-07
-2.52104e-06
6.0387e-07
-2.58864e-06
5.67414e-07
-2.65038e-06
5.26645e-07
-2.7061e-06
4.8183e-07
-2.75567e-06
4.33248e-07
-2.79895e-06
3.81188e-07
-2.83582e-06
3.25946e-07
-2.86619e-06
2.67823e-07
-2.88994e-06
2.07127e-07
-2.90697e-06
1.44176e-07
-2.91718e-06
7.9296e-08
-2.92045e-06
1.28281e-08
-2.91668e-06
-5.48772e-08
-2.90575e-06
-1.2344e-07
-2.88757e-06
-1.92462e-07
-2.86201e-06
-2.61519e-07
-2.82899e-06
-3.30152e-07
-2.78839e-06
-3.97871e-07
-2.74015e-06
-4.64149e-07
-2.68421e-06
-5.28421e-07
-2.62055e-06
-5.90086e-07
-2.5492e-06
-6.48508e-07
-2.47023e-06
-7.03021e-07
-2.38379e-06
-7.52939e-07
-2.2901e-06
-7.97563e-07
-2.18949e-06
-8.36201e-07
-2.08237e-06
-8.68181e-07
-1.96929e-06
-8.92873e-07
-1.85091e-06
-9.09717e-07
-1.72803e-06
-9.18243e-07
-1.60155e-06
-9.18102e-07
-1.47252e-06
-9.09089e-07
-1.34205e-06
-8.91167e-07
-1.21136e-06
-8.64483e-07
-1.08173e-06
-8.29384e-07
-9.54435e-07
-7.86414e-07
-8.3075e-07
-7.36311e-07
-7.11898e-07
-6.79991e-07
-5.99011e-07
-6.18518e-07
-4.931e-07
-5.53074e-07
-3.95027e-07
-4.84913e-07
-3.05486e-07
-4.15322e-07
-2.24989e-07
-3.45575e-07
-1.53861e-07
-2.76889e-07
-9.22429e-08
-2.1039e-07
-4.0099e-08
-1.47086e-07
2.77194e-09
-8.78408e-08
3.67161e-08
-3.33689e-08
6.22227e-08
1.57721e-08
7.98868e-08
5.91644e-08
9.04066e-08
9.65179e-08
9.45631e-08
1.27638e-07
9.32056e-08
1.52388e-07
8.72405e-08
1.70642e-07
7.76228e-08
1.82235e-07
6.5353e-08
1.86908e-07
5.14797e-08
1.84265e-07
3.71096e-08
1.73726e-07
2.34254e-08
1.54501e-07
1.17102e-08
1.25573e-07
3.37586e-09
8.57058e-08
3.33806e-08
-4.38191e-10
-1.3985e-08
-2.83441e-09
-2.78196e-08
-7.92012e-09
-3.05255e-08
-1.62106e-08
-2.43001e-08
-2.80922e-08
-1.08736e-08
-4.38749e-08
8.32586e-09
-6.38289e-08
3.21308e-08
-8.82049e-08
5.95931e-08
-1.17245e-07
8.99474e-08
-1.51183e-07
1.22588e-07
-1.90247e-07
1.5705e-07
-2.34654e-07
1.92995e-07
-2.84604e-07
2.3019e-07
-3.40271e-07
2.68478e-07
-4.01794e-07
3.07754e-07
-4.69259e-07
3.47921e-07
-5.42687e-07
3.88863e-07
-6.22015e-07
4.3041e-07
-7.07087e-07
4.72314e-07
-7.97635e-07
5.14244e-07
-8.93282e-07
5.55777e-07
-9.93538e-07
5.96407e-07
-1.09781e-06
6.35567e-07
-1.20541e-06
6.72645e-07
-1.31558e-06
7.07014e-07
-1.42751e-06
7.38058e-07
-1.54037e-06
7.65192e-07
-1.65332e-06
7.87893e-07
-1.76555e-06
8.05707e-07
-1.87627e-06
8.18269e-07
-1.98478e-06
8.25305e-07
-2.09044e-06
8.26633e-07
-2.19266e-06
8.22162e-07
-2.29096e-06
8.11881e-07
-2.38491e-06
7.95853e-07
-2.47415e-06
7.74199e-07
-2.55838e-06
7.47093e-07
-2.63737e-06
7.14748e-07
-2.71091e-06
6.77404e-07
-2.77882e-06
6.35326e-07
-2.84096e-06
5.88792e-07
-2.89723e-06
5.38091e-07
-2.94749e-06
4.83517e-07
-2.99168e-06
4.2537e-07
-3.02968e-06
3.63951e-07
-3.06143e-06
2.99566e-07
-3.08682e-06
2.32522e-07
-3.10578e-06
1.63133e-07
-3.1182e-06
9.17209e-08
-3.12399e-06
1.86172e-08
-3.12304e-06
-5.58302e-08
-3.11522e-06
-1.31256e-07
-3.10041e-06
-2.0727e-07
-3.07848e-06
-2.83457e-07
-3.04926e-06
-3.59364e-07
-3.01263e-06
-4.34505e-07
-2.96843e-06
-5.08349e-07
-2.91653e-06
-5.80322e-07
-2.85681e-06
-6.49804e-07
-2.78919e-06
-7.16129e-07
-2.71362e-06
-7.78589e-07
-2.63012e-06
-8.3644e-07
-2.53878e-06
-8.88911e-07
-2.43976e-06
-9.35218e-07
-2.33336e-06
-9.74582e-07
-2.21998e-06
-1.00625e-06
-2.10017e-06
-1.02952e-06
-1.97463e-06
-1.04379e-06
-1.84419e-06
-1.04854e-06
-1.70984e-06
-1.04343e-06
-1.57273e-06
-1.02828e-06
-1.4341e-06
-1.00311e-06
-1.29531e-06
-9.68173e-07
-1.15777e-06
-9.23954e-07
-1.02291e-06
-8.7117e-07
-8.92144e-07
-8.10761e-07
-7.668e-07
-7.43862e-07
-6.48106e-07
-6.71768e-07
-5.37134e-07
-5.95885e-07
-4.34774e-07
-5.17682e-07
-3.41715e-07
-4.38635e-07
-2.58431e-07
-3.60172e-07
-1.85186e-07
-2.83636e-07
-1.22037e-07
-2.10235e-07