/*--------------------------------*- C++ -*----------------------------------*\
  =========                 |
  \\      /  F ield         | OpenFOAM: The Open Source CFD Toolbox
   \\    /   O peration     | Website:  https://openfoam.org
    \\  /    A nd           | Version:  9
     \\/     M anipulation  |
\*---------------------------------------------------------------------------*/
FoamFile
{
    format      ascii;
    class       volVectorField;
    location    "3";
    object      U;
}
// * * * * * * * * * * * * * * * * * * * * * * * * * * * * * * * * * * * * * //

dimensions      [0 1 -1 0 0 0 0];

internalField   nonuniform List<vector> 
10000
(
(-8.01073e-06 7.97739e-06 0)
(3.18262e-05 -2.23419e-05 0)
(0.000158721 -4.95049e-05 0)
(0.000334477 -6.45412e-05 0)
(0.000534229 -6.994e-05 0)
(0.000737636 -6.86983e-05 0)
(0.000929355 -6.3155e-05 0)
(0.00109895 -5.50545e-05 0)
(0.00123993 -4.56511e-05 0)
(0.00134875 -3.58249e-05 0)
(0.00142401 -2.61696e-05 0)
(0.00146581 -1.70512e-05 0)
(0.00147516 -8.66179e-06 0)
(0.00145349 -1.01587e-06 0)
(0.00140225 5.96867e-06 0)
(0.0013226 1.2461e-05 0)
(0.0012152 1.8685e-05 0)
(0.00108009 2.4889e-05 0)
(0.000916634 3.132e-05 0)
(0.000723538 3.82049e-05 0)
(0.00049896 4.57348e-05 0)
(0.000240614 5.40604e-05 0)
(-5.40876e-05 6.32853e-05 0)
(-0.000387881 7.34698e-05 0)
(-0.000763509 8.46339e-05 0)
(-0.00118358 9.67608e-05 0)
(-0.00165045 0.000109802 0)
(-0.0021661 0.000123677 0)
(-0.00273201 0.000138279 0)
(-0.00334909 0.000153467 0)
(-0.00401756 0.000169074 0)
(-0.00473685 0.000184894 0)
(-0.0055055 0.000200692 0)
(-0.00632108 0.000216194 0)
(-0.00718014 0.000231096 0)
(-0.00807807 0.000245059 0)
(-0.00900916 0.00025772 0)
(-0.00996649 0.000268689 0)
(-0.010942 0.000277563 0)
(-0.0119264 0.000283931 0)
(-0.0129093 0.000287384 0)
(-0.0138796 0.000287523 0)
(-0.0148248 0.000283974 0)
(-0.0157321 0.000276399 0)
(-0.0165879 0.000264506 0)
(-0.0173784 0.000248067 0)
(-0.0180895 0.000226925 0)
(-0.0187075 0.000201014 0)
(-0.0192187 0.000170382 0)
(-0.0196106 0.000135237 0)
(-0.0198716 9.59137e-05 0)
(-0.0199916 5.27374e-05 0)
(-0.0199612 6.24626e-06 0)
(-0.0197734 -4.33439e-05 0)
(-0.0194244 -9.48749e-05 0)
(-0.0189123 -0.000147367 0)
(-0.0182379 -0.00019982 0)
(-0.0174049 -0.000251142 0)
(-0.0164204 -0.000300172 0)
(-0.0152944 -0.000345722 0)
(-0.0140402 -0.000386618 0)
(-0.0126741 -0.000421742 0)
(-0.0112148 -0.000450081 0)
(-0.00968384 -0.000470774 0)
(-0.00810444 -0.000483158 0)
(-0.00650129 -0.000486805 0)
(-0.00489985 -0.000481554 0)
(-0.00332564 -0.000467532 0)
(-0.00180348 -0.000445162 0)
(-0.000356768 -0.000415169 0)
(0.000993044 -0.000378566 0)
(0.00222734 -0.000336383 0)
(0.00333091 -0.000290075 0)
(0.00429206 -0.000241068 0)
(0.00510308 -0.000190853 0)
(0.00576031 -0.000140848 0)
(0.00626397 -9.2382e-05 0)
(0.00661796 -4.66361e-05 0)
(0.00682951 -4.5762e-06 0)
(0.00690861 3.30624e-05 0)
(0.00686742 6.57849e-05 0)
(0.00671972 9.33457e-05 0)
(0.00648015 0.000115723 0)
(0.00616369 0.00013309 0)
(0.00578507 0.000145793 0)
(0.00535825 0.000154308 0)
(0.00489613 0.000159199 0)
(0.00441018 0.000161076 0)
(0.00391041 0.000160543 0)
(0.00340533 0.000158143 0)
(0.00290224 0.00015429 0)
(0.00240759 0.00014918 0)
(0.00192773 0.00014268 0)
(0.00146985 0.000134189 0)
(0.00104323 0.000122471 0)
(0.000660834 0.000105535 0)
(0.000340316 8.07938e-05 0)
(0.000103286 4.59884e-05 0)
(-2.58094e-05 2.65963e-06 0)
(-3.00713e-05 -3.03195e-05 0)
(2.21638e-05 -3.16802e-05 0)
(0.00017167 -0.000171752 0)
(0.000486184 -0.000285685 0)
(0.000892566 -0.000352 0)
(0.00134183 -0.000376312 0)
(0.00179421 -0.000368 0)
(0.00221669 -0.000336037 0)
(0.00258448 -0.000288114 0)
(0.00288053 -0.000230396 0)
(0.0030941 -0.000167604 0)
(0.00321934 -0.000103164 0)
(0.00325397 -3.93603e-05 0)
(0.00319807 2.25327e-05 0)
(0.00305295 8.20228e-05 0)
(0.0028202 0.000139315 0)
(0.00250103 0.00019511 0)
(0.00209571 0.000250432 0)
(0.00160328 0.000306469 0)
(0.00102143 0.000364427 0)
(0.000346533 0.000425412 0)
(-0.000426148 0.000490344 0)
(-0.00130217 0.000559892 0)
(-0.00228755 0.000634454 0)
(-0.00338842 0.000714145 0)
(-0.0046106 0.000798808 0)
(-0.00595924 0.000888032 0)
(-0.00743848 0.000981169 0)
(-0.00905113 0.00107735 0)
(-0.0107983 0.0011755 0)
(-0.0126793 0.00127435 0)
(-0.0146912 0.00137243 0)
(-0.0168287 0.00146808 0)
(-0.0190839 0.0015595 0)
(-0.0214461 0.00164472 0)
(-0.0239019 0.00172164 0)
(-0.026435 0.00178808 0)
(-0.0290262 0.00184182 0)
(-0.0316534 0.00188062 0)
(-0.0342921 0.00190229 0)
(-0.0369153 0.00190475 0)
(-0.0394939 0.00188607 0)
(-0.041997 0.00184455 0)
(-0.0443927 0.00177876 0)
(-0.0466478 0.0016876 0)
(-0.0487293 0.00157034 0)
(-0.050604 0.00142671 0)
(-0.0522399 0.00125687 0)
(-0.0536062 0.00106152 0)
(-0.0546744 0.000841895 0)
(-0.0554184 0.000599881 0)
(-0.055816 0.0003377 0)
(-0.0558488 5.76369e-05 0)
(-0.0555015 -0.000234749 0)
(-0.0547638 -0.000537031 0)
(-0.0536321 -0.00084449 0)
(-0.0521083 -0.00115202 0)
(-0.0501998 -0.00145428 0)
(-0.0479204 -0.00174568 0)
(-0.0452903 -0.0020205 0)
(-0.0423359 -0.00227302 0)
(-0.0390896 -0.00249772 0)
(-0.0355896 -0.00268943 0)
(-0.0318796 -0.00284349 0)
(-0.0280076 -0.00295599 0)
(-0.0240253 -0.00302392 0)
(-0.0199871 -0.0030453 0)
(-0.0159491 -0.00301938 0)
(-0.0119675 -0.00294665 0)
(-0.00809736 -0.00282895 0)
(-0.00439145 -0.00266944 0)
(-0.000898549 -0.00247252 0)
(0.00233751 -0.00224349 0)
(0.00527931 -0.00198866 0)
(0.00789664 -0.00171494 0)
(0.0101671 -0.00142981 0)
(0.0120769 -0.00114047 0)
(0.0136203 -0.000853991 0)
(0.0148001 -0.000576943 0)
(0.0156267 -0.000315085 0)
(0.0161174 -7.32041e-05 0)
(0.0162954 0.000145003 0)
(0.0161888 0.000337005 0)
(0.0158288 0.000501475 0)
(0.0152487 0.000638126 0)
(0.0144827 0.000747685 0)
(0.0135644 0.000831702 0)
(0.0125263 0.000892353 0)
(0.0113984 0.000932193 0)
(0.0102083 0.000953884 0)
(0.00898084 0.000959873 0)
(0.00773863 0.000952018 0)
(0.00650267 0.000931166 0)
(0.00529377 0.000896693 0)
(0.0041342 0.000846046 0)
(0.00304972 0.000774401 0)
(0.00207161 0.000674778 0)
(0.00123701 0.000539434 0)
(0.000585874 0.000363679 0)
(0.000159795 0.00015605 0)
(4.2085e-06 -2.55706e-05 0)
(4.96012e-05 -0.000158481 0)
(0.000287012 -0.00048651 0)
(0.000734777 -0.000732086 0)
(0.00128878 -0.00087448 0)
(0.00188454 -0.000923022 0)
(0.00247192 -0.00089475 0)
(0.00300792 -0.000807867 0)
(0.00345884 -0.00067916 0)
(0.00380027 -0.000522876 0)
(0.00401567 -0.000350401 0)
(0.00409482 -0.000170301 0)
(0.00403228 1.15078e-05 0)
(0.00382575 0.000191503 0)
(0.00347476 0.000368152 0)
(0.00297944 0.000541629 0)
(0.00233956 0.000713363 0)
(0.00155385 0.000885618 0)
(0.000619557 0.00106108 0)
(-0.000467648 0.00124251 0)
(-0.0017136 0.00143239 0)
(-0.00312533 0.00163273 0)
(-0.00471065 0.00184489 0)
(-0.00647758 0.00206946 0)
(-0.0084338 0.00230629 0)
(-0.010586 0.00255446 0)
(-0.0129395 0.00281231 0)
(-0.0154975 0.00307752 0)
(-0.0182605 0.00334715 0)
(-0.0212261 0.00361768 0)
(-0.0243888 0.00388504 0)
(-0.027739 0.00414469 0)
(-0.0312634 0.00439168 0)
(-0.0349444 0.00462067 0)
(-0.0387603 0.00482608 0)
(-0.0426853 0.00500214 0)
(-0.0466893 0.00514306 0)
(-0.0507384 0.00524312 0)
(-0.0547954 0.00529682 0)
(-0.0588199 0.00529903 0)
(-0.0627688 0.00524515 0)
(-0.0665975 0.00513121 0)
(-0.0702599 0.00495403 0)
(-0.0737094 0.00471132 0)
(-0.0768997 0.00440181 0)
(-0.0797856 0.00402529 0)
(-0.0823236 0.00358269 0)
(-0.0844726 0.00307616 0)
(-0.0861951 0.00250907 0)
(-0.0874571 0.00188604 0)
(-0.0882297 0.00121299 0)
(-0.0884897 0.000496869 0)
(-0.0882168 -0.00025528 0)
(-0.0873984 -0.00103133 0)
(-0.0860302 -0.00182229 0)
(-0.0841126 -0.0026173 0)
(-0.081654 -0.00340436 0)
(-0.0786699 -0.00417089 0)
(-0.0751833 -0.00490401 0)
(-0.0712245 -0.00559074 0)
(-0.0668312 -0.00621831 0)
(-0.0620478 -0.00677447 0)
(-0.0569257 -0.00724779 0)
(-0.051522 -0.00762811 0)
(-0.045899 -0.00790681 0)
(-0.0401237 -0.00807722 0)
(-0.0342661 -0.00813495 0)
(-0.0283982 -0.00807809 0)
(-0.022593 -0.00790751 0)
(-0.0169223 -0.00762692 0)
(-0.0114558 -0.00724286 0)
(-0.0062592 -0.00676467 0)
(-0.00139258 -0.00620416 0)
(0.00309084 -0.00557517 0)
(0.00714583 -0.00489303 0)
(0.0107368 -0.00417509 0)
(0.0138384 -0.00343824 0)
(0.0164356 -0.00269945 0)
(0.0185238 -0.00197507 0)
(0.0201092 -0.0012799 0)
(0.0212077 -0.000626841 0)
(0.0218439 -2.64837e-05 0)
(0.0220497 0.000513144 0)
(0.0218634 0.000986804 0)
(0.0213274 0.00139182 0)
(0.0204869 0.00172806 0)
(0.0193881 0.00199759 0)
(0.018077 0.00220421 0)
(0.0165981 0.00235292 0)
(0.0149934 0.00244922 0)
(0.0133024 0.00249834 0)
(0.0115618 0.00250432 0)
(0.00980681 0.00246906 0)
(0.00807213 0.00239134 0)
(0.00639368 0.00226605 0)
(0.00481071 0.00208391 0)
(0.00336756 0.00183231 0)
(0.00211339 0.00149868 0)
(0.00109791 0.00107773 0)
(0.000378718 0.000586404 0)
(5.0759e-05 0.000109003 0)
(6.56218e-05 -0.000335628 0)
(0.000357211 -0.00089589 0)
(0.000884675 -0.0012877 0)
(0.0015166 -0.00150483 0)
(0.00217629 -0.00156574 0)
(0.0028069 -0.00149729 0)
(0.00335963 -0.00132801 0)
(0.00379552 -0.00108467 0)
(0.00408544 -0.000790491 0)
(0.00420868 -0.000464452 0)
(0.00415135 -0.000121086 0)
(0.00390475 0.000229359 0)
(0.00346372 0.000580562 0)
(0.0028252 0.00092968 0)
(0.00198689 0.00127669 0)
(0.000946197 0.00162371 0)
(-0.000300448 0.00197429 0)
(-0.00175804 0.00233271 0)
(-0.00343307 0.00270327 0)
(-0.00533335 0.00308981 0)
(-0.00746755 0.00349523 0)
(-0.00984466 0.0039212 0)
(-0.0124732 0.00436802 0)
(-0.0153606 0.00483449 0)
(-0.0185123 0.00531802 0)
(-0.021931 0.00581462 0)
(-0.0256162 0.00631902 0)
(-0.0295632 0.00682483 0)
(-0.0337631 0.00732458 0)
(-0.038202 0.0078099 0)
(-0.0428608 0.00827164 0)
(-0.0477154 0.00870003 0)
(-0.0527361 0.00908488 0)
(-0.0578879 0.00941577 0)
(-0.0631314 0.00968229 0)
(-0.0684222 0.00987431 0)
(-0.0737124 0.00998221 0)
(-0.0789506 0.00999717 0)
(-0.0840833 0.00991139 0)
(-0.0890551 0.00971835 0)
(-0.0938103 0.00941298 0)
(-0.0982933 0.00899182 0)
(-0.10245 0.00845321 0)
(-0.106227 0.00779731 0)
(-0.109575 0.0070262 0)
(-0.112449 0.00614388 0)
(-0.114806 0.0051563 0)
(-0.11661 0.00407131 0)
(-0.117828 0.00289852 0)
(-0.118435 0.00164912 0)
(-0.118413 0.000336445 0)
(-0.117746 -0.00102194 0)
(-0.116425 -0.00241323 0)
(-0.114455 -0.00381926 0)
(-0.11184 -0.00522128 0)
(-0.108596 -0.00659976 0)
(-0.104745 -0.00793456 0)
(-0.100314 -0.00920518 0)
(-0.0953399 -0.0103912 0)
(-0.0898665 -0.0114724 0)
(-0.0839434 -0.0124298 0)
(-0.0776275 -0.0132455 0)
(-0.0709814 -0.0139033 0)
(-0.0640732 -0.0143898 0)
(-0.0569758 -0.0146943 0)
(-0.049766 -0.0148092 0)
(-0.0425228 -0.0147312 0)
(-0.0353271 -0.014461 0)
(-0.0282594 -0.0140034 0)
(-0.0213988 -0.0133681 0)
(-0.0148212 -0.0125688 0)
(-0.00859773 -0.0116236 0)
(-0.00279281 -0.0105541 0)
(0.00253599 -0.00938472 0)
(0.00734108 -0.00814243 0)
(0.0115859 -0.00685532 0)
(0.0152439 -0.00555162 0)
(0.0183006 -0.00425937 0)
(0.0207533 -0.00300439 0)
(0.0226109 -0.00181002 0)
(0.0238929 -0.000696282 0)
(0.0246287 0.000320769 0)
(0.0248561 0.00122926 0)
(0.0246194 0.00202196 0)
(0.0239683 0.0026958 0)
(0.0229556 0.00325154 0)
(0.0216355 0.00369326 0)
(0.0200625 0.0040274 0)
(0.0182897 0.00426169 0)
(0.0163684 0.00440379 0)
(0.0143479 0.00445988 0)
(0.0122759 0.00443306 0)
(0.0101996 0.00432185 0)
(0.00816668 0.00411914 0)
(0.00622772 0.00381191 0)
(0.00443748 0.00338271 0)
(0.00285474 0.00281431 0)
(0.00153867 0.00209861 0)
(0.000566899 0.00125277 0)
(8.96047e-05 0.000359876 0)
(7.27059e-05 -0.000539732 0)
(0.000387244 -0.00135257 0)
(0.000942685 -0.00188903 0)
(0.00158877 -0.00216648 0)
(0.00223962 -0.00221792 0)
(0.00283371 -0.00208258 0)
(0.00331878 -0.0018003 0)
(0.00365296 -0.00140817 0)
(0.00380433 -0.000938546 0)
(0.00374931 -0.000418078 0)
(0.00347111 0.000132608 0)
(0.00295807 0.000698806 0)
(0.00220207 0.00127133 0)
(0.00119707 0.00184585 0)
(-6.21486e-05 0.00242208 0)
(-0.00158099 0.00300271 0)
(-0.00336568 0.00359245 0)
(-0.00542363 0.00419692 0)
(-0.00776331 0.00482168 0)
(-0.010394 0.00547146 0)
(-0.0133252 0.00614943 0)
(-0.0165656 0.00685683 0)
(-0.0201228 0.00759267 0)
(-0.0240017 0.00835365 0)
(-0.0282041 0.00913421 0)
(-0.0327275 0.00992668 0)
(-0.0375648 0.0107214 0)
(-0.0427033 0.011507 0)
(-0.0481245 0.0122707 0)
(-0.0538035 0.0129982 0)
(-0.0597095 0.0136748 0)
(-0.0658052 0.0142846 0)
(-0.0720476 0.0148119 0)
(-0.0783882 0.015241 0)
(-0.0847741 0.0155568 0)
(-0.0911482 0.015745 0)
(-0.0974506 0.0157929 0)
(-0.10362 0.0156894 0)
(-0.109593 0.0154253 0)
(-0.115307 0.0149939 0)
(-0.120703 0.0143908 0)
(-0.125721 0.0136143 0)
(-0.130305 0.0126652 0)
(-0.134404 0.0115471 0)
(-0.13797 0.0102661 0)
(-0.140962 0.00883105 0)
(-0.143341 0.00725297 0)
(-0.145076 0.00554535 0)
(-0.146143 0.00372375 0)
(-0.14652 0.00180556 0)
(-0.146193 -0.00018936 0)
(-0.145156 -0.00223706 0)
(-0.143408 -0.00431821 0)
(-0.140952 -0.00640768 0)
(-0.137801 -0.00847978 0)
(-0.133971 -0.010508 0)
(-0.129486 -0.0124653 0)
(-0.124378 -0.0143241 0)
(-0.118684 -0.016057 0)
(-0.112446 -0.0176373 0)
(-0.105717 -0.0190392 0)
(-0.0985515 -0.0202385 0)
(-0.0910131 -0.0212135 0)
(-0.0831703 -0.0219452 0)
(-0.0750966 -0.0224186 0)
(-0.0668701 -0.0226227 0)
(-0.0585723 -0.0225517 0)
(-0.0502871 -0.022205 0)
(-0.0420995 -0.021588 0)
(-0.0340942 -0.020712 0)
(-0.0263538 -0.0195943 0)
(-0.0189576 -0.0182579 0)
(-0.0119792 -0.0167312 0)
(-0.00548593 -0.0150472 0)
(0.000463844 -0.013242 0)
(0.0058219 -0.0113545 0)
(0.0105501 -0.0094242 0)
(0.0146224 -0.00749186 0)
(0.0180259 -0.00559504 0)
(0.0207592 -0.00376895 0)
(0.0228332 -0.00204476 0)
(0.0242701 -0.00044863 0)
(0.0251029 0.000998861 0)
(0.0253731 0.00228338 0)
(0.0251296 0.00339663 0)
(0.0244268 0.00433587 0)
(0.0233229 0.00510337 0)
(0.0218783 0.00570528 0)
(0.0201537 0.00615016 0)
(0.0182095 0.00644713 0)
(0.016105 0.00660389 0)
(0.0138986 0.00662458 0)
(0.0116481 0.00650774 0)
(0.00941178 0.00624488 0)
(0.00724992 0.00582007 0)
(0.00522675 0.00521154 0)
(0.00341046 0.00439648 0)
(0.00187087 0.0033597 0)
(0.000706506 0.00210798 0)
(0.000116999 0.000700784 0)
(7.35188e-05 -0.000751236 0)
(0.000384493 -0.00181643 0)
(0.000920498 -0.00248352 0)
(0.00152219 -0.00279793 0)
(0.00209818 -0.00281109 0)
(0.00258397 -0.00257683 0)
(0.00292568 -0.00214732 0)
(0.0030801 -0.00157018 0)
(0.00301387 -0.000886726 0)
(0.0027016 -0.000131051 0)
(0.00212429 0.00067039 0)
(0.00126766 0.00149865 0)
(0.000120735 0.00234181 0)
(-0.00132555 0.00319413 0)
(-0.00307947 0.00405497 0)
(-0.00514938 0.00492747 0)
(-0.00754416 0.00581718 0)
(-0.0102734 0.00673063 0)
(-0.013347 0.00767401 0)
(-0.0167749 0.00865212 0)
(-0.0205661 0.00966745 0)
(-0.0247278 0.0107196 0)
(-0.0292641 0.011805 0)
(-0.0341755 0.0129168 0)
(-0.0394574 0.0140451 0)
(-0.0450997 0.0151767 0)
(-0.0510858 0.0162963 0)
(-0.0573925 0.017386 0)
(-0.0639893 0.0184264 0)
(-0.0708387 0.0193965 0)
(-0.0778965 0.0202748 0)
(-0.0851121 0.0210394 0)
(-0.0924294 0.021669 0)
(-0.0997877 0.0221431 0)
(-0.107123 0.0224427 0)
(-0.114368 0.022551 0)
(-0.121457 0.0224535 0)
(-0.128321 0.0221389 0)
(-0.134895 0.0215988 0)
(-0.141116 0.0208282 0)
(-0.146922 0.0198258 0)
(-0.15226 0.0185934 0)
(-0.157077 0.0171363 0)
(-0.161327 0.0154628 0)
(-0.164969 0.0135845 0)
(-0.167969 0.0115155 0)
(-0.170296 0.00927265 0)
(-0.171926 0.00687522 0)
(-0.17284 0.00434465 0)
(-0.173024 0.00170455 0)
(-0.172468 -0.00101967 0)
(-0.171169 -0.00380222 0)
(-0.16913 -0.00661319 0)
(-0.166357 -0.00942265 0)
(-0.162861 -0.0121994 0)
(-0.15866 -0.0149109 0)
(-0.153776 -0.0175243 0)
(-0.148238 -0.0200057 0)
(-0.142079 -0.0223215 0)
(-0.135342 -0.0244386 0)
(-0.128071 -0.0263248 0)
(-0.120321 -0.0279498 0)
(-0.11215 -0.0292857 0)
(-0.103625 -0.0303081 0)
(-0.0948174 -0.0309966 0)
(-0.0858035 -0.031336 0)
(-0.076665 -0.0313168 0)
(-0.0674871 -0.0309363 0)
(-0.0583573 -0.0301987 0)
(-0.0493642 -0.0291159 0)
(-0.040596 -0.0277072 0)
(-0.0321387 -0.0259994 0)
(-0.0240741 -0.0240265 0)
(-0.0164788 -0.0218286 0)
(-0.00942125 -0.0194505 0)
(-0.00296055 -0.0169414 0)
(0.00285303 -0.0143526 0)
(0.00798195 -0.0117357 0)
(0.0124022 -0.00914156 0)
(0.016101 -0.00661798 0)
(0.0190789 -0.00420844 0)
(0.021349 -0.00195071 0)
(0.0229365 0.000124283 0)
(0.0238772 0.00199283 0)
(0.0242158 0.00363926 0)
(0.024005 0.00505502 0)
(0.0233035 0.0062384 0)
(0.022174 0.00719321 0)
(0.020682 0.00792704 0)
(0.018894 0.00844904 0)
(0.0168771 0.00876744 0)
(0.0146982 0.00888689 0)
(0.012424 0.00880586 0)
(0.010122 0.00851475 0)
(0.00786151 0.00799506 0)
(0.0057158 0.00722055 0)
(0.00376263 0.00616126 0)
(0.00208303 0.00479073 0)
(0.000794287 0.00309709 0)
(0.000133314 0.00110338 0)
(6.98137e-05 -0.000954207 0)
(0.000354885 -0.00225089 0)
(0.000828883 -0.00302125 0)
(0.00133258 -0.00334024 0)
(0.00177301 -0.00327994 0)
(0.0020848 -0.00291028 0)
(0.00221402 -0.0022963 0)
(0.00211752 -0.00149616 0)
(0.00176151 -0.000559779 0)
(0.0011196 0.000471849 0)
(0.000171108 0.00156696 0)
(-0.00110046 0.00270279 0)
(-0.00270873 0.00386498 0)
(-0.00466568 0.00504652 0)
(-0.00698252 0.00624638 0)
(-0.00967034 0.0074679 0)
(-0.0127403 0.00871698 0)
(-0.0162035 0.0100004 0)
(-0.0200706 0.0113239 0)
(-0.0243508 0.0126914 0)
(-0.0290509 0.0141032 0)
(-0.0341747 0.0155559 0)
(-0.0397209 0.0170416 0)
(-0.0456829 0.0185483 0)
(-0.0520475 0.0200599 0)
(-0.0587944 0.0215567 0)
(-0.0658954 0.0230158 0)
(-0.0733148 0.024412 0)
(-0.0810089 0.0257182 0)
(-0.0889269 0.0269066 0)
(-0.0970117 0.027949 0)
(-0.1052 0.0288181 0)
(-0.113426 0.0294877 0)
(-0.121619 0.0299343 0)
(-0.129708 0.030137 0)
(-0.137621 0.0300782 0)
(-0.14529 0.0297444 0)
(-0.152646 0.0291262 0)
(-0.159627 0.0282184 0)
(-0.166173 0.02702 0)
(-0.172229 0.0255341 0)
(-0.177748 0.0237678 0)
(-0.182686 0.0217317 0)
(-0.187005 0.0194398 0)
(-0.190673 0.0169089 0)
(-0.193661 0.0141588 0)
(-0.195948 0.0112114 0)
(-0.197514 0.0080909 0)
(-0.198347 0.00482359 0)
(-0.198436 0.00143768 0)
(-0.197774 -0.002037 0)
(-0.196359 -0.00556985 0)
(-0.194193 -0.00912694 0)
(-0.191282 -0.0126737 0)
(-0.187633 -0.0161741 0)
(-0.183262 -0.0195908 0)
(-0.178185 -0.0228855 0)
(-0.172427 -0.0260191 0)
(-0.166016 -0.028952 0)
(-0.158986 -0.0316451 0)
(-0.151379 -0.0340597 0)
(-0.143243 -0.0361592 0)
(-0.13463 -0.0379091 0)
(-0.125603 -0.0392785 0)
(-0.11623 -0.040241 0)
(-0.106584 -0.0407759 0)
(-0.0967459 -0.0408689 0)
(-0.0868016 -0.0405135 0)
(-0.0768403 -0.0397114 0)
(-0.0669542 -0.0384735 0)
(-0.0572365 -0.0368196 0)
(-0.0477799 -0.0347792 0)
(-0.0386743 -0.0323902 0)
(-0.0300053 -0.0296988 0)
(-0.0218519 -0.0267579 0)
(-0.0142844 -0.023626 0)
(-0.0073641 -0.0203658 0)
(-0.00114018 -0.01704 0)
(0.00435086 -0.0137126 0)
(0.00908515 -0.0104445 0)
(0.0130524 -0.00729231 0)
(0.0162559 -0.00430643 0)
(0.0187116 -0.00152974 0)
(0.0204481 0.00100333 0)
(0.0215043 0.00326726 0)
(0.0219287 0.00524605 0)
(0.0217782 0.00693187 0)
(0.0211155 0.00832405 0)
(0.0200081 0.00942726 0)
(0.0185265 0.010249 0)
(0.016743 0.0107968 0)
(0.0147311 0.0110749 0)
(0.0125653 0.0110811 0)
(0.0103209 0.0108046 0)
(0.00807558 0.0102241 0)
(0.00591112 0.0093085 0)
(0.00391472 0.00801908 0)
(0.00217812 0.00631514 0)
(0.000833253 0.00416142 0)
(0.000139996 0.00153945 0)
(6.26023e-05 -0.00113576 0)
(0.000302462 -0.00262363 0)
(0.000676055 -0.00345642 0)
(0.0010325 -0.00373857 0)
(0.00128126 -0.0035636 0)
(0.00135836 -0.00301807 0)
(0.00121158 -0.00217992 0)
(0.000798999 -0.00111742 0)
(8.73296e-05 0.000111541 0)
(-0.000950211 0.00145982 0)
(-0.00233552 0.00289101 0)
(-0.00408697 0.00437914 0)
(-0.00622058 0.00590774 0)
(-0.00875094 0.00746869 0)
(-0.0116918 0.00906045 0)
(-0.0150566 0.0106861 0)
(-0.0188579 0.0123513 0)
(-0.0231075 0.014062 0)
(-0.0278153 0.0158224 0)
(-0.0329882 0.0176338 0)
(-0.0386293 0.0194928 0)
(-0.0447364 0.0213912 0)
(-0.0513007 0.023315 0)
(-0.0583063 0.0252453 0)
(-0.0657292 0.0271585 0)
(-0.073537 0.0290266 0)
(-0.0816886 0.0308185 0)
(-0.0901349 0.0325011 0)
(-0.0988194 0.0340399 0)
(-0.107679 0.0354004 0)
(-0.116645 0.036549 0)
(-0.125645 0.0374542 0)
(-0.134606 0.0380876 0)
(-0.143453 0.0384244 0)
(-0.152113 0.0384444 0)
(-0.160514 0.0381322 0)
(-0.168591 0.0374774 0)
(-0.17628 0.0364748 0)
(-0.183526 0.0351241 0)
(-0.190277 0.03343 0)
(-0.196487 0.031401 0)
(-0.202117 0.0290501 0)
(-0.207133 0.0263932 0)
(-0.211504 0.0234497 0)
(-0.215207 0.0202411 0)
(-0.218221 0.0167917 0)
(-0.220527 0.0131274 0)
(-0.222113 0.0092761 0)
(-0.222966 0.00526752 0)
(-0.223078 0.00113301 0)
(-0.222442 -0.00309438 0)
(-0.221055 -0.00738062 0)
(-0.218917 -0.011689 0)
(-0.216028 -0.0159817 0)
(-0.212393 -0.0202187 0)
(-0.20802 -0.0243587 0)
(-0.202921 -0.0283589 0)
(-0.197113 -0.0321751 0)
(-0.190618 -0.0357624 0)
(-0.183462 -0.0390753 0)
(-0.175679 -0.0420691 0)
(-0.167309 -0.0446998 0)
(-0.158401 -0.0469261 0)
(-0.149009 -0.0487097 0)
(-0.139196 -0.0500171 0)
(-0.129033 -0.0508205 0)
(-0.118598 -0.0510995 0)
(-0.107978 -0.0508421 0)
(-0.0972609 -0.050046 0)
(-0.0865442 -0.0487191 0)
(-0.0759255 -0.0468804 0)
(-0.0655045 -0.04456 0)
(-0.0553795 -0.041799 0)
(-0.0456459 -0.0386483 0)
(-0.0363934 -0.0351681 0)
(-0.0277044 -0.0314256 0)
(-0.0196516 -0.0274936 0)
(-0.0122965 -0.0234475 0)
(-0.00568796 -0.0193636 0)
(0.000138636 -0.0153166 0)
(0.00516202 -0.0113767 0)
(0.00937517 -0.00760796 0)
(0.012785 -0.00406641 0)
(0.0154116 -0.00079856 0)
(0.0172876 0.00215902 0)
(0.0184568 0.00478072 0)
(0.0189723 0.00705077 0)
(0.0188953 0.0089621 0)
(0.0182936 0.0105146 0)
(0.0172397 0.0117125 0)
(0.0158096 0.0125609 0)
(0.0140819 0.0130626 0)
(0.012137 0.013214 0)
(0.0100572 0.0130023 0)
(0.00792764 0.0124032 0)
(0.00583818 0.0113798 0)
(0.00388457 0.00988397 0)
(0.00216776 0.00785923 0)
(0.000829495 0.00524563 0)
(0.00013875 0.00198383 0)
(5.23578e-05 -0.00128483 0)
(0.000229597 -0.00290576 0)
(0.000467557 -0.00374721 0)
(0.000631158 -0.00394238 0)
(0.000636231 -0.00360589 0)
(0.00042259 -0.00284056 0)
(-5.85256e-05 -0.00173658 0)
(-0.000846562 -0.000371418 0)
(-0.00197356 0.00119005 0)
(-0.00346617 0.00289544 0)
(-0.00534711 0.00470456 0)
(-0.00763634 0.00658878 0)
(-0.0103519 0.00852993 0)
(-0.0135105 0.0105188 0)
(-0.0171281 0.0125531 0)
(-0.0212192 0.0146351 0)
(-0.0257972 0.0167691 0)
(-0.030873 0.018959 0)
(-0.0364541 0.021206 0)
(-0.0425435 0.0235069 0)
(-0.0491381 0.0258529 0)
(-0.0562279 0.0282289 0)
(-0.0637944 0.0306132 0)
(-0.0718105 0.0329785 0)
(-0.0802399 0.0352921 0)
(-0.089037 0.0375174 0)
(-0.0981477 0.0396148 0)
(-0.10751 0.0415435 0)
(-0.117057 0.0432623 0)
(-0.126713 0.0447318 0)
(-0.136405 0.0459149 0)
(-0.146054 0.0467785 0)
(-0.155583 0.0472942 0)
(-0.164919 0.0474391 0)
(-0.17399 0.0471962 0)
(-0.182732 0.0465544 0)
(-0.191085 0.0455086 0)
(-0.198994 0.0440595 0)
(-0.206412 0.0422128 0)
(-0.213297 0.0399791 0)
(-0.219614 0.037373 0)
(-0.225331 0.0344123 0)
(-0.230424 0.0311182 0)
(-0.234868 0.0275138 0)
(-0.238645 0.0236248 0)
(-0.24174 0.0194782 0)
(-0.244137 0.0151027 0)
(-0.245826 0.0105287 0)
(-0.246794 0.00578776 0)
(-0.247034 0.000913129 0)
(-0.246537 -0.00406017 0)
(-0.245297 -0.00909608 0)
(-0.243309 -0.0141559 0)
(-0.240571 -0.0191993 0)
(-0.237081 -0.0241835 0)
(-0.232842 -0.0290639 0)
(-0.227857 -0.0337937 0)
(-0.222137 -0.0383242 0)
(-0.215695 -0.0426053 0)
(-0.208549 -0.0465856 0)
(-0.200725 -0.0502137 0)
(-0.192254 -0.0534386 0)
(-0.183177 -0.056211 0)
(-0.17354 -0.0584845 0)
(-0.163402 -0.0602171 0)
(-0.152826 -0.061373 0)
(-0.141889 -0.0619236 0)
(-0.130674 -0.0618499 0)
(-0.119271 -0.0611431 0)
(-0.10778 -0.0598066 0)
(-0.0963021 -0.0578564 0)
(-0.084945 -0.0553217 0)
(-0.0738158 -0.0522447 0)
(-0.0630201 -0.0486803 0)
(-0.0526599 -0.0446944 0)
(-0.04283 -0.0403628 0)
(-0.0336166 -0.0357682 0)
(-0.0250943 -0.0309983 0)
(-0.0173251 -0.0261426 0)
(-0.0103567 -0.0212897 0)
(-0.00422178 -0.0165246 0)
(0.00106208 -0.0119257 0)
(0.00549248 -0.0075633 0)
(0.00908147 -0.00349738 0)
(0.0118549 0.000223522 0)
(0.0138512 0.0035623 0)
(0.0151196 0.00649367 0)
(0.015719 0.0090025 0)
(0.0157164 0.0110822 0)
(0.0151852 0.012732 0)
(0.0142038 0.0139533 0)
(0.0128547 0.0147459 0)
(0.0112231 0.015104 0)
(0.00939731 0.015012 0)
(0.00746907 0.0144416 0)
(0.00553532 0.0133501 0)
(0.00369912 0.0116794 0)
(0.00206867 0.00935761 0)
(0.000790656 0.0063015 0)
(0.000131314 0.00241552 0)
(3.92199e-05 -0.00139127 0)
(0.000137486 -0.00307056 0)
(0.000206872 -0.00385483 0)
(0.000135146 -0.00390473 0)
(-0.000151687 -0.00335493 0)
(-0.00070762 -0.00232305 0)
(-0.00157615 -0.000910184 0)
(-0.00279314 0.000798355 0)
(-0.0043887 0.00273204 0)
(-0.0063889 0.00483439 0)
(-0.00881696 0.00706232 0)
(-0.011694 0.00938512 0)
(-0.0150398 0.0117832 0)
(-0.0188725 0.0142462 0)
(-0.0232092 0.0167704 0)
(-0.028065 0.0193566 0)
(-0.0334522 0.0220065 0)
(-0.0393794 0.0247203 0)
(-0.04585 0.0274944 0)
(-0.0528607 0.0303194 0)
(-0.0604006 0.0331787 0)
(-0.0684496 0.0360489 0)
(-0.076978 0.0388989 0)
(-0.0859463 0.041692 0)
(-0.0953051 0.0443858 0)
(-0.104996 0.0469349 0)
(-0.114953 0.049292 0)
(-0.125104 0.0514096 0)
(-0.135371 0.0532422 0)
(-0.145675 0.0547473 0)
(-0.155938 0.0558872 0)
(-0.166079 0.05663 0)
(-0.176026 0.0569501 0)
(-0.185709 0.056829 0)
(-0.195063 0.0562551 0)
(-0.204031 0.0552236 0)
(-0.212562 0.0537357 0)
(-0.220613 0.0517987 0)
(-0.228145 0.0494244 0)
(-0.235126 0.0466292 0)
(-0.241529 0.0434326 0)
(-0.24733 0.0398569 0)
(-0.25251 0.0359268 0)
(-0.257051 0.0316686 0)
(-0.260939 0.0271101 0)
(-0.26416 0.0222804 0)
(-0.266703 0.0172097 0)
(-0.268555 0.0119293 0)
(-0.269706 0.00647195 0)
(-0.270146 0.000871681 0)
(-0.269865 -0.00483572 0)
(-0.268855 -0.0106129 0)
(-0.267106 -0.0164201 0)
(-0.264613 -0.0222151 0)
(-0.261367 -0.0279535 0)
(-0.257365 -0.0335879 0)
(-0.252606 -0.0390685 0)
(-0.247089 -0.0443425 0)
(-0.240821 -0.0493551 0)
(-0.23381 -0.0540495 0)
(-0.226072 -0.0583677 0)
(-0.21763 -0.0622513 0)
(-0.208513 -0.0656428 0)
(-0.198759 -0.0684869 0)
(-0.188418 -0.0707323 0)
(-0.177547 -0.0723333 0)
(-0.166215 -0.0732517 0)
(-0.154502 -0.073459 0)
(-0.142498 -0.0729382 0)
(-0.130302 -0.0716855 0)
(-0.11802 -0.0697115 0)
(-0.105765 -0.067042 0)
(-0.093655 -0.0637188 0)
(-0.0818055 -0.0597985 0)
(-0.0703317 -0.0553521 0)
(-0.0593433 -0.0504625 0)
(-0.0489412 -0.0452226 0)
(-0.0392154 -0.0397323 0)
(-0.0302428 -0.0340948 0)
(-0.0220848 -0.0284138 0)
(-0.0147871 -0.0227898 0)
(-0.00837832 -0.0173172 0)
(-0.00287076 -0.0120816 0)
(0.00173949 -0.00715777 0)
(0.00547149 -0.00260797 0)
(0.00835842 0.00151831 0)
(0.0104458 0.00518445 0)
(0.0117899 0.00836605 0)
(0.012457 0.0110486 0)
(0.0125208 0.0132247 0)
(0.0120615 0.0148906 0)
(0.0111643 0.0160422 0)
(0.00991898 0.0166699 0)
(0.0084187 0.0167547 0)
(0.00676091 0.0162639 0)
(0.00504859 0.0151485 0)
(0.00339062 0.0133412 0)
(0.00190033 0.010756 0)
(0.000725149 0.00728982 0)
(0.000119421 0.00281805 0)
(2.31628e-05 -0.00144528 0)
(2.66632e-05 -0.0030927 0)
(-0.000103742 -0.00374285 0)
(-0.000450602 -0.00358202 0)
(-0.00107382 -0.00276287 0)
(-0.00201885 -0.00141566 0)
(-0.00332242 0.000349731 0)
(-0.0050157 0.00244211 0)
(-0.00712623 0.00478695 0)
(-0.00967914 0.00732498 0)
(-0.0126978 0.0100111 0)
(-0.0162042 0.0128131 0)
(-0.0202191 0.0157099 0)
(-0.0247616 0.0186898 0)
(-0.0298487 0.0217471 0)
(-0.0354946 0.0248796 0)
(-0.0417092 0.0280851 0)
(-0.048497 0.0313583 0)
(-0.0558551 0.0346889 0)
(-0.0637724 0.038059 0)
(-0.0722278 0.0414431 0)
(-0.0811901 0.0448074 0)
(-0.0906173 0.0481108 0)
(-0.100457 0.0513061 0)
(-0.110648 0.0543421 0)
(-0.121119 0.0571651 0)
(-0.131795 0.0597215 0)
(-0.142596 0.0619597 0)
(-0.15344 0.0638319 0)
(-0.164245 0.0652958 0)
(-0.174932 0.0663158 0)
(-0.185426 0.0668639 0)
(-0.19566 0.0669199 0)
(-0.20557 0.0664715 0)
(-0.215102 0.0655141 0)
(-0.224208 0.0640498 0)
(-0.232845 0.0620867 0)
(-0.240981 0.0596381 0)
(-0.248585 0.0567218 0)
(-0.255633 0.0533586 0)
(-0.262104 0.0495723 0)
(-0.26798 0.0453883 0)
(-0.273247 0.0408339 0)
(-0.277892 0.0359373 0)
(-0.281902 0.0307276 0)
(-0.285266 0.0252348 0)
(-0.287974 0.0194898 0)
(-0.290015 0.0135243 0)
(-0.291379 0.00737112 0)
(-0.292054 0.00106452 0)
(-0.292031 -0.00535981 0)
(-0.291298 -0.0118639 0)
(-0.289845 -0.0184077 0)
(-0.28766 -0.0249485 0)
(-0.284732 -0.0314405 0)
(-0.281053 -0.0378348 0)
(-0.276612 -0.0440793 0)
(-0.271403 -0.0501184 0)
(-0.265423 -0.0558932 0)
(-0.258672 -0.0613422 0)
(-0.251153 -0.0664012 0)
(-0.242878 -0.0710048 0)
(-0.233866 -0.0750874 0)
(-0.224142 -0.0785841 0)
(-0.213745 -0.0814335 0)
(-0.202721 -0.0835785 0)
(-0.191132 -0.0849698 0)
(-0.179049 -0.0855673 0)
(-0.166558 -0.085343 0)
(-0.153757 -0.084283 0)
(-0.140754 -0.0823895 0)
(-0.127666 -0.0796824 0)
(-0.114619 -0.0761996 0)
(-0.101741 -0.0719976 0)
(-0.0891608 -0.0671501 0)
(-0.0770043 -0.0617464 0)
(-0.0653899 -0.0558888 0)
(-0.0544257 -0.0496894 0)
(-0.044206 -0.043266 0)
(-0.0348091 -0.0367385 0)
(-0.0262955 -0.0302245 0)
(-0.0187073 -0.023836 0)
(-0.0120677 -0.0176758 0)
(-0.00638162 -0.0118351 0)
(-0.00163705 -0.00639159 0)
(0.00219383 -0.00140867 0)
(0.00515321 0.00306456 0)
(0.00729567 0.00699282 0)
(0.00868637 0.0103523 0)
(0.00939964 0.0131279 0)
(0.00951733 0.0153096 0)
(0.00912753 0.0168879 0)
(0.00832347 0.0178487 0)
(0.00720292 0.0181688 0)
(0.00586826 0.0178108 0)
(0.00442737 0.0167195 0)
(0.00299353 0.0148192 0)
(0.00168327 0.0120127 0)
(0.000641592 0.00818128 0)
(0.000104755 0.00317966 0)
(4.10633e-06 -0.00143712 0)
(-0.000102629 -0.00294788 0)
(-0.000462582 -0.00337696 0)
(-0.00112158 -0.00293385 0)
(-0.00212179 -0.00178612 0)
(-0.00349789 -7.37459e-05 0)
(-0.00527826 0.00208761 0)
(-0.00748851 0.00460334 0)
(-0.0101531 0.00739685 0)
(-0.0132959 0.0104075 0)
(-0.0169402 0.0135891 0)
(-0.0211081 0.0169081 0)
(-0.0258209 0.0203423 0)
(-0.0310975 0.0238775 0)
(-0.0369538 0.0275052 0)
(-0.0434015 0.0312189 0)
(-0.0504464 0.0350106 0)
(-0.0580869 0.0388678 0)
(-0.0663121 0.0427712 0)
(-0.0751012 0.0466933 0)
(-0.0844219 0.0505975 0)
(-0.094231 0.054439 0)
(-0.104474 0.0581661 0)
(-0.115086 0.0617219 0)
(-0.125995 0.0650469 0)
(-0.137121 0.0680812 0)
(-0.148383 0.0707671 0)
(-0.159694 0.0730516 0)
(-0.170974 0.0748875 0)
(-0.18214 0.0762356 0)
(-0.19312 0.0770651 0)
(-0.203844 0.0773541 0)
(-0.214252 0.0770894 0)
(-0.22429 0.0762663 0)
(-0.233912 0.0748873 0)
(-0.243079 0.0729615 0)
(-0.25176 0.0705036 0)
(-0.259927 0.0675323 0)
(-0.267558 0.0640699 0)