/*--------------------------------*- C++ -*----------------------------------*\
  =========                 |
  \\      /  F ield         | OpenFOAM: The Open Source CFD Toolbox
   \\    /   O peration     | Website:  https://openfoam.org
    \\  /    A nd           | Version:  9
     \\/     M anipulation  |
\*---------------------------------------------------------------------------*/
FoamFile
{
    format      ascii;
    class       volScalarField;
    location    "1";
    object      p;
}
// * * * * * * * * * * * * * * * * * * * * * * * * * * * * * * * * * * * * * //

dimensions      [0 2 -2 0 0 0 0];

internalField   nonuniform List<scalar> 
10000
(
-3.90047e-09
-2.20909e-06
-1.01574e-05
-2.23179e-05
-3.67697e-05
-5.22859e-05
-6.78765e-05
-8.29294e-05
-9.70508e-05
-0.000110034
-0.000121801
-0.00013236
-0.000141762
-0.000150079
-0.000157385
-0.000163739
-0.00016918
-0.000173723
-0.000177352
-0.000180028
-0.000181684
-0.00018223
-0.000181558
-0.000179541
-0.000176039
-0.0001709
-0.000163966
-0.000155075
-0.000144059
-0.000130755
-0.000114999
-9.66348e-05
-7.55149e-05
-5.15027e-05
-2.4477e-05
5.66477e-06
3.90021e-05
7.55877e-05
0.000115444
0.000158555
0.000204867
0.000254279
0.000306642
0.000361751
0.000419346
0.000479107
0.00054065
0.000603531
0.000667243
0.000731223
0.00079485
0.000857458
0.000918337
0.000976749
0.00103194
0.00108314
0.0011296
0.00117059
0.00120542
0.00123347
0.00125419
0.00126711
0.00127188
0.00126824
0.00125609
0.00123542
0.00120639
0.00116927
0.00112445
0.00107245
0.00101389
0.000949485
0.000880025
0.000806353
0.000729352
0.000649924
0.000568974
0.000487387
0.00040602
0.000325683
0.000247132
0.000171061
9.80951e-05
2.87912e-05
-3.63625e-05
-9.6941e-05
-0.000152579
-0.000202962
-0.000247821
-0.000286927
-0.000320082
-0.000347121
-0.000367927
-0.000382449
-0.000390748
-0.000393088
-0.000390106
-0.000383081
-0.000374113
-0.00036629
1.95185e-06
-2.7982e-07
-6.85982e-06
-1.6826e-05
-2.85141e-05
-4.12769e-05
-5.4356e-05
-6.72143e-05
-7.94963e-05
-9.09858e-05
-0.00010157
-0.000111207
-0.000119898
-0.00012767
-0.000134552
-0.000140569
-0.000145734
-0.00015004
-0.000153462
-0.00015595
-0.000157435
-0.000157831
-0.000157031
-0.000154916
-0.000151354
-0.000146201
-0.000139311
-0.000130529
-0.000119701
-0.00010667
-9.12853e-05
-7.33995e-05
-5.28744e-05
-2.95837e-05
-3.41595e-06
2.57226e-05
5.79028e-05
9.31689e-05
0.000131535
0.000172982
0.000217448
0.00026483
0.000314977
0.000367689
0.000422708
0.00047972
0.000538355
0.000598185
0.000658724
0.000719429
0.000779712
0.000838934
0.000896425
0.000951485
0.0010034
0.00105144
0.00109492
0.00113313
0.00116545
0.00119127
0.00121011
0.00122151
0.00122516
0.00122084
0.00120843
0.00118797
0.00115959
0.00112356
0.00108027
0.0010302
0.000973948
0.000912192
0.000845681
0.000775211
0.000701618
0.000625755
0.000548474
0.000470613
0.000392979
0.000316339
0.000241408
0.000168839
9.92242e-05
3.30921e-05
-2.90971e-05
-8.69445e-05
-0.00014011
-0.000188306
-0.000231295
-0.000268883
-0.000300922
-0.000327307
-0.000347993
-0.000363013
-0.000372515
-0.000376815
-0.000376512
-0.000372624
-0.000366321
-0.00035848
9.7304e-06
6.00288e-06
-7.0443e-07
-9.79457e-06
-2.03651e-05
-3.17593e-05
-4.34167e-05
-5.49203e-05
-6.59799e-05
-7.64084e-05
-8.60983e-05
-9.49995e-05
-0.000103098
-0.000110398
-0.000116911
-0.000122645
-0.000127594
-0.000131741
-0.000135049
-0.000137464
-0.000138913
-0.000139308
-0.000138544
-0.000136504
-0.000133059
-0.000128071
-0.000121399
-0.000112892
-0.000102402
-8.97778e-05
-7.4873e-05
-5.75456e-05
-3.76618e-05
-1.50995e-05
1.02489e-05
3.84738e-05
6.96436e-05
0.000103801
0.000140958
0.000181094
0.000224151
0.000270025
0.00031857
0.000369589
0.00042283
0.000477989
0.000534706
0.000592562
0.000651084
0.000709746
0.000767974
0.000825151
0.000880623
0.00093371
0.000983718
0.00102995
0.00107171
0.00110835
0.00113924
0.00116381
0.00118156
0.00119209
0.00119508
0.00119032
0.00117771
0.00115727
0.00112916
0.00109363
0.00105107
0.00100197
0.000946893
0.000886513
0.000821565
0.000752825
0.000681108
0.000607242
0.000532058
0.000456369
0.000380954
0.000306554
0.000233858
0.000163496
9.6034e-05
3.19747e-05
-2.82441e-05
-8.42488e-05
-0.000135724
-0.000182408
-0.000224091
-0.000260609
-0.000291845
-0.000317728
-0.000338245
-0.000353453
-0.000363498
-0.000368644
-0.000369366
-0.000366418
-0.00036006
-0.000349468
2.2089e-05
1.56975e-05
7.85652e-06
-1.3806e-06
-1.16355e-05
-2.23777e-05
-3.31927e-05
-4.37822e-05
-5.39368e-05
-6.35207e-05
-7.24564e-05
-8.07075e-05
-8.82631e-05
-9.51248e-05
-0.000101296
-0.000106775
-0.000111549
-0.00011559
-0.000118855
-0.000121284
-0.0001228
-0.000123313
-0.000122716
-0.000120894
-0.000117718
-0.000113053
-0.000106757
-9.86865e-05
-8.86922e-05
-7.66267e-05
-6.2345e-05
-4.5707e-05
-2.65803e-05
-4.84296e-06
1.96126e-05
4.68769e-05
7.70204e-05
0.000110088
0.000146094
0.000185023
0.000226821
0.000271389
0.000318588
0.000368228
0.000420065
0.000473803
0.000529093
0.000585522
0.00064263
0.000699901
0.00075677
0.00081263
0.000866837
0.000918719
0.000967591
0.00101276
0.00105355
0.00108929
0.00111938
0.00114325
0.0011604
0.00117043
0.00117303
0.00116797
0.00115518
0.00113468
0.00110662
0.00107126
0.00102898
0.000980275
0.000925725
0.000865995
0.000801813
0.000733959
0.000663243
0.000590485
0.00051651
0.000442118
0.000368079
0.000295117
0.000223904
0.00015505
8.91031e-05
2.65425e-05
-3.22175e-05
-8.68272e-05
-0.000136997
-0.000182492
-0.000223129
-0.00025877
-0.000289324
-0.000314741
-0.000335018
-0.000350206
-0.000360411
-0.000365808
-0.000366726
-0.000363681
-0.000356222
-0.000342311
3.72648e-05
2.74022e-05
1.794e-05
8.02842e-06
-2.37847e-06
-1.28777e-05
-2.3186e-05
-3.31235e-05
-4.25684e-05
-5.14471e-05
-5.97245e-05
-6.73906e-05
-7.44492e-05
-8.0908e-05
-8.67714e-05
-9.20342e-05
-9.66785e-05
-0.000100671
-0.000103963
-0.00010649
-0.000108171
-0.000108912
-0.000108606
-0.000107134
-0.00010437
-0.000100177
-9.44142e-05
-8.69375e-05
-7.75993e-05
-6.62519e-05
-5.27497e-05
-3.69518e-05
-1.87247e-05
2.05585e-06
2.55007e-05
5.1704e-05
8.07406e-05
0.000112661
0.000147487
0.000185209
0.000225781
0.000269114
0.000315076
0.000363487
0.000414114
0.000466669
0.000520812
0.000576141
0.000632203
0.000688489
0.00074444
0.000799453
0.000852887
0.000904073
0.000952323
0.000996944
0.00103725
0.00107258
0.00110231
0.00112587
0.00114277
0.00115258
0.00115499
0.00114978
0.00113686
0.00111626
0.00108813
0.00105273
0.00101046
0.000961809
0.000907368
0.00084781
0.000783878
0.000716357
0.000646064
0.000573826
0.000500471
0.000426799
0.000353576
0.00028152
0.000211292
0.00014349
7.86413e-05
1.72076e-05
-4.04192e-05
-9.39142e-05
-0.000143014
-0.00018751
-0.000227247
-0.000262113
-0.000292037
-0.000316985
-0.000336957
-0.000351986
-0.000362135
-0.000367489
-0.000368246
-0.000364742
-0.000356008
-0.000339109
5.39264e-05
4.02147e-05
2.87319e-05
1.77624e-05
6.83826e-06
-3.74927e-06
-1.38363e-05
-2.33585e-05
-3.22839e-05
-4.06066e-05
-4.8341e-05
-5.55122e-05
-6.21467e-05
-6.82661e-05
-7.38812e-05
-7.89889e-05
-8.35703e-05
-8.75893e-05
-9.09934e-05
-9.3714e-05
-9.56672e-05
-9.67553e-05
-9.68685e-05
-9.58863e-05
-9.36795e-05
-9.01113e-05
-8.50395e-05
-7.83177e-05
-6.97972e-05
-5.93281e-05
-4.67626e-05
-3.19563e-05
-1.47719e-05
4.91951e-06
2.72348e-05
5.2275e-05
8.01222e-05
0.000110836
0.000144448
0.000180958
0.000220331
0.00026249
0.000307316
0.000354638
0.000404235
0.00045583
0.000509094
0.000563632
0.000618996
0.000674685
0.00073014
0.000784758
0.000837895
0.000888876
0.000937005
0.000981579
0.0010219
0.00105729
0.00108711
0.00111078
0.00112777
0.00113767
0.00114013
0.00113495
0.001122
0.00110132
0.00107306
0.00103749
0.000995008
0.000946119
0.000891432
0.000831636
0.00076749
0.0006998
0.000629399
0.000557135
0.000483843
0.000410338
0.00033739
0.000265719
0.000195983
0.00012877
6.45977e-05
3.90864e-06
-5.2926e-05
-0.000105603
-0.000153885
-0.000197591
-0.000236591
-0.000270798
-0.00030016
-0.000324656
-0.000344285
-0.000359064
-0.000369012
-0.000374139
-0.000374545
-0.000370438
-0.000360499
-0.000341172
7.08446e-05
5.3133e-05
3.94036e-05
2.71219e-05
1.54199e-05
4.4949e-06
-5.59738e-06
-1.4903e-05
-2.34791e-05
-3.13891e-05
-3.87011e-05
-4.54799e-05
-5.17802e-05
-5.76419e-05
-6.30873e-05
-6.81192e-05
-7.27206e-05
-7.68552e-05
-8.04688e-05
-8.34897e-05
-8.58309e-05
-8.73912e-05
-8.80578e-05
-8.77072e-05
-8.62074e-05
-8.34191e-05
-7.91974e-05
-7.3393e-05
-6.58535e-05
-5.64257e-05
-4.49569e-05
-3.12977e-05
-1.53044e-05
3.15902e-06
2.42175e-05
4.79818e-05
7.45444e-05
0.000103976
0.000136322
0.000171594
0.000209772
0.000250792
0.000294549
0.000340888
0.000389599
0.000440421
0.000493028
0.00054704
0.000602014
0.000657448
0.000712785
0.000767417
0.000820694
0.000871927
0.000920408
0.000965413
0.00100622
0.00104214
0.0010725
0.00109669
0.00111417
0.00112449
0.00112729
0.00112234
0.00110952
0.00108884
0.00106046
0.00102465
0.000981824
0.000932493
0.000877287
0.000816919
0.000752175
0.000683889
0.000612921
0.000540143
0.000466417
0.000392576
0.000319404
0.000247633
0.000177923
0.000110862
4.6957e-05
-1.33597e-05
-6.97359e-05
-0.000121891
-0.000169611
-0.00021274
-0.000251174
-0.000284851
-0.000313736
-0.000337819
-0.000357102
-0.000371588
-0.000381262
-0.000386076
-0.000386058
-0.000381336
-0.000370368
-0.000349187
8.69983e-05
6.52314e-05
4.91425e-05
3.53986e-05
2.2752e-05
1.13189e-05
1.05578e-06
-8.18838e-06
-1.65571e-05
-2.4183e-05
-3.1189e-05
-3.76815e-05
-4.3746e-05
-4.94438e-05
-5.48113e-05
-5.98599e-05
-6.4577e-05
-6.89283e-05
-7.28585e-05
-7.62942e-05
-7.91452e-05
-8.13076e-05
-8.26648e-05
-8.30903e-05
-8.24483e-05
-8.05964e-05
-7.73856e-05
-7.26624e-05
-6.62698e-05
-5.80492e-05
-4.78422e-05
-3.54924e-05
-2.08479e-05
-3.76372e-06
1.58956e-05
3.82523e-05
6.34123e-05
9.14603e-05
0.000122456
0.000156428
0.000193372
0.000233243
0.000275951
0.000321357
0.00036927
0.00041944
0.000471552
0.000525238
0.00058006
0.000635517
0.00069105
0.000746045
0.000799841
0.000851734
0.000900993
0.000946873
0.000988626
0.00102552
0.00105686
0.001082
0.00110037
0.00111148
0.00111495
0.00111052
0.00109805
0.00107754
0.00104914
0.00101313
0.000969909
0.000920028
0.000864131
0.00080296
0.00073733
0.000668112
0.000596203
0.00052251
0.000447925
0.00037331
0.000299477
0.000227171
0.000157067
8.97548e-05
2.57409e-05
-3.45524e-05
-9.07873e-05
-0.000142703
-0.000190108
-0.00023287
-0.000270913
-0.000304195
-0.000332703
-0.000356439
-0.000375409
-0.000389607
-0.000398995
-0.000403485
-0.000403059
-0.000397797
-0.000386015
-0.000363489
0.000101446
7.56429e-05
5.71538e-05
4.18706e-05
2.81814e-05
1.61294e-05
5.57822e-06
-3.72322e-06
-1.20018e-05
-1.94577e-05
-2.62678e-05
-3.25805e-05
-3.85125e-05
-4.4148e-05
-4.9539e-05
-5.47072e-05
-5.96462e-05
-6.4324e-05
-6.8686e-05
-7.2657e-05
-7.61449e-05
-7.90425e-05
-8.12303e-05
-8.25778e-05
-8.29459e-05
-8.21875e-05
-8.01494e-05
-7.6673e-05
-7.1596e-05
-6.47537e-05
-5.59803e-05
-4.51116e-05
-3.19863e-05
-1.64489e-05
1.64833e-06
2.2441e-05
4.60498e-05
7.25762e-05
0.000102097
0.000134661
0.000170281
0.000208934
0.000250549
0.000295007
0.000342134
0.000391699
0.000443401
0.000496882
0.000551711
0.000607391
0.000663361
0.000718999
0.000773631
0.000826537
0.000876961
0.000924128
0.000967258
0.00100558
0.00103836
0.00106491
0.00108461
0.00109695
0.00110149
0.00109793
0.00108613
0.00106606
0.00103785
0.00100176
0.000958237
0.000907815
0.000851169
0.000789071
0.000722375
0.00065199
0.000578856
0.000503926
0.000428133
0.000352375
0.000277498
0.000204273
0.000133394
6.54631e-05
9.89956e-07
-5.96083e-05
-0.000116005
-0.000167955
-0.000215287
-0.000257895
-0.000295725
-0.000328761
-0.00035701
-0.000380488
-0.000399209
-0.000413165
-0.000422304
-0.000426515
-0.000425748
-0.000420058
-0.000407678
-0.000384223
0.000113319
8.35415e-05
6.26581e-05
4.58079e-05
3.10269e-05
1.82895e-05
7.37005e-06
-2.07851e-06
-1.03635e-05
-1.775e-05
-2.44672e-05
-3.07043e-05
-3.66092e-05
-4.22889e-05
-4.78114e-05
-5.32096e-05
-5.84834e-05
-6.36043e-05
-6.85184e-05
-7.315e-05
-7.7405e-05
-8.11738e-05
-8.43335e-05
-8.67504e-05
-8.82812e-05
-8.87747e-05
-8.80728e-05
-8.60119e-05
-8.24241e-05
-7.71381e-05
-6.99808e-05
-6.0779e-05
-4.93619e-05
-3.55623e-05
-1.92195e-05
-1.82776e-07
2.16847e-05
4.65027e-05
7.43684e-05
0.000105351
0.000139488
0.000176776
0.000217171
0.000260576
0.000306838
0.000355745
0.000407013
0.000460312
0.000515208
0.000571212
0.000627766
0.000684241
0.000739952
0.000794159
0.000846083
0.000894916
0.00093984
0.000980044
0.00101474
0.0010432
0.00106475
0.00107882
0.00108492
0.00108273
0.00107205
0.00105281
0.00102513
0.000989281
0.000945668
0.000894861
0.000837551
0.000774541
0.000706721
0.000635048
0.000560513
0.000484116
0.000406845
0.000329643
0.000253397
0.000178917
0.000106922
3.8034e-05
-2.72266e-05
-8.84417e-05
-0.000145291
-0.000197543
-0.000245046
-0.000287716
-0.000325523
-0.000358475
-0.000386601
-0.000409936
-0.000428502
-0.000442296
-0.000451262
-0.000455273
-0.000454264
-0.000448275
-0.000435492
-0.000411436
0.000121798
8.813e-05
6.48882e-05
4.6477e-05
3.05894e-05
1.71319e-05
5.79199e-06
-3.87082e-06
-1.22412e-05
-1.96467e-05
-2.63665e-05
-3.26291e-05
-3.86121e-05
-4.44445e-05
-5.02102e-05
-5.59527e-05
-6.16787e-05
-6.7363e-05
-7.29532e-05
-7.83733e-05
-8.35278e-05
-8.83049e-05
-9.25791e-05
-9.62134e-05
-9.90609e-05
-0.000100966
-0.000101768
-0.000101297
-9.93807e-05
-9.58414e-05
-9.04991e-05
-8.31722e-05
-7.36801e-05
-6.18443e-05
-4.74908e-05
-3.04529e-05
-1.05764e-05
1.22781e-05
3.82299e-05
6.7372e-05
9.97668e-05
0.000135439
0.00017437
0.000216492
0.000261679
0.00030974
0.000360404
0.00041341
0.000468295
0.000524591
0.000581746
0.000639134
0.000696061
0.00075177
0.000805462
0.000856295
0.000903413
0.000945957
0.000983091
0.00101402
0.00103801
0.00105443
0.00106275
0.00106256
0.00105361
0.0010358
0.00100921
0.000974077
0.000930808
0.000879969
0.000822268
0.000758535
0.000689701
0.000616768
0.000540783
0.000462807
0.000383884
0.000305018
0.000227148
0.000151126
7.77156e-05
7.56252e-06
-5.87932e-05
-0.000120925
-0.000178512
-0.000231334
-0.000279255
-0.000322212
-0.000360198
-0.000393246
-0.000421408
-0.000444737
-0.000463271
-0.000477013
-0.000485909
-0.000489829
-0.000488697
-0.000482544
-0.000469532
-0.000445131
0.000126093
8.86319e-05
6.30863e-05
4.31425e-05
2.61566e-05
1.19668e-05
1.74449e-07
-9.75234e-06
-1.82731e-05
-2.57757e-05
-3.25867e-05
-3.89717e-05
-4.51361e-05
-5.12297e-05
-5.73514e-05
-6.35543e-05
-6.98516e-05
-7.62217e-05
-8.26136e-05
-8.89516e-05
-9.51392e-05
-0.000101063
-0.000106595
-0.000111596
-0.000115917
-0.0001194
-0.000121879
-0.000123184
-0.000123135
-0.000121553
-0.000118251
-0.00011304
-0.000105732
-9.61369e-05
-8.40685e-05
-6.93445e-05
-5.17925e-05
-3.12529e-05
-7.58328e-06
1.93356e-05
4.95946e-05
8.32491e-05
0.000120312
0.000160749
0.000204468
0.00025132
0.000301089
0.000353413
0.000408008
0.000464371
0.000521965
0.000580172
0.000638303
0.000695591
0.000751218
0.000804317
0.000853993
0.00089934
0.000939463
0.000973502
0.00100066
0.00102021
0.00103156
0.00103422
0.00102787
0.00101235
0.000987667
0.000954028
0.00091181
0.000861566
0.000804008
0.000739989
0.000670473
0.000596511
0.000519209
0.000439692
0.000359075
0.000278429
0.000198758
0.000120976
4.5894e-05
-2.5799e-05
-9.35357e-05
-0.000156873
-0.000215483
-0.000269149
-0.000317745
-0.000361229
-0.000399616
-0.000432961
-0.000461341
-0.000484829
-0.000503479
-0.000517308
-0.000526267
-0.000530226
-0.000529103
-0.000522926
-0.000509842
-0.000485298
0.000125435
8.42845e-05
5.6501e-05
3.50674e-05
1.70069e-05
2.08773e-06
-1.01748e-05
-2.04026e-05
-2.91285e-05
-3.67977e-05
-4.37822e-05
-5.0382e-05
-5.68286e-05
-6.32906e-05
-6.98802e-05
-7.66597e-05
-8.3648e-05
-9.08269e-05
-9.8147e-05
-0.000105533
-0.000112888
-0.000120098
-0.000127034
-0.000133556
-0.000139514
-0.000144747
-0.000149091
-0.000152373
-0.000154414
-0.000155031
-0.000154033
-0.00015123
-0.000146425
-0.000139421
-0.00013002
-0.000118026
-0.00010325
-8.55119e-05
-6.46449e-05
-4.05024e-05
-1.29624e-05
1.80658e-05
5.26325e-05
9.0742e-05
0.000132345
0.000177334
0.000225521
0.000276593
0.00033039
0.000386334
0.000443944
0.000502636
0.000561739
0.000620496
0.000678079
0.000733601
0.000786138
0.000834738
0.000878449
0.000916336
0.000947519
0.000971191
0.000986645
0.000993305
0.000990746
0.000978715
0.000957143
0.000926159
0.00088609
0.000837452
0.000780942
0.000717419
0.000647874
0.000573402
0.000495166
0.000414364
0.000332188
0.000249793
0.000168263
8.85869e-05
1.1641e-05
-6.18287e-05
-0.000131212
-0.000196035
-0.000255955
-0.000310748
-0.000360297
-0.00040457
-0.000443604
-0.000477477
-0.000506285
-0.000530127
-0.000549074
-0.000563158
-0.000572339
-0.000576489
-0.000575524
-0.000569465
-0.000556456
-0.000531937
0.000119066
7.43352e-05
4.43869e-05
2.15147e-05
2.41276e-06
-1.3223e-05
-2.5964e-05
-3.65214e-05
-4.54993e-05
-5.33985e-05
-6.06334e-05
-6.75365e-05
-7.4363e-05
-8.12984e-05
-8.84667e-05
-9.59382e-05
-0.000103737
-0.000111848
-0.000120223
-0.000128788
-0.000137448
-0.000146087
-0.000154578
-0.000162782
-0.00017055
-0.000177724
-0.000184142
-0.000189632
-0.00019402
-0.000197123
-0.000198753
-0.000198719
-0.000196823
-0.000192862
-0.000186631
-0.000177926
-0.00016654
-0.000152276
-0.000134942
-0.000114364
-9.03852e-05
-6.28775e-05
-3.17454e-05
3.06369e-06
4.15527e-05
8.36701e-05
0.000129307
0.000178297
0.000230201
0.000284828
0.000341653
0.000400148
0.000459681
0.000519521
0.000578854
0.00063679
0.000692385
0.00074465
0.000792576
0.000835156
0.000871412
0.000900433
0.000921389
0.000933575
0.000936435
0.000929585
0.000912835
0.000886201
0.000849916
0.000804429
0.000750389
0.000688637
0.00062017
0.000546118
0.000467699
0.000386182
0.00030285
0.000218953
0.000135673
5.40953e-05
-2.48172e-05
-0.000100241
-0.000171502
-0.000238081
-0.000299602
-0.000355823
-0.000406624
-0.000451981
-0.000491943
-0.000526607
-0.000556093
-0.00058052
-0.000599981
-0.000614523
-0.000624115
-0.000628633
-0.00062799
-0.000622204
-0.000609413
-0.000585069
0.000106239
5.80395e-05
2.60034e-05
1.74903e-06
-1.83555e-05
-3.46895e-05
-4.79119e-05
-5.88221e-05
-6.80941e-05
-7.62819e-05
-8.38405e-05
-9.1132e-05
-9.84334e-05
-0.000105945
-0.000113802
-0.00012208
-0.000130809
-0.000139975
-0.000149534
-0.000159413
-0.000169517
-0.000179735
-0.000189943
-0.000200004
-0.000209774
-0.000219104
-0.000227836
-0.000235808
-0.000242853
-0.000248797
-0.00025346
-0.000256657
-0.000258193
-0.000257869
-0.000255479
-0.000250811
-0.000243652
-0.000233785
-0.000221001
-0.000205093
-0.000185873
-0.000163168
-0.000136831
-0.00010675
-7.28562e-05
-3.51281e-05
6.40441e-06
5.16459e-05
0.00010034
0.000152235
0.000206997
0.000264143
0.000323127
0.000383278
0.000443824
0.000503904
0.000562576
0.00061883
0.000671607
0.000719825
0.000762406
0.000798308
0.000826557
0.000846282
0.00085675
0.000857397
0.000847855
0.000827975
0.000797846
0.000757789
0.000708362
0.000650344
0.000584709
0.000512597
0.000435272
0.000354074
0.000270379
0.000185548
0.000100883
1.75915e-05
-6.32485e-05
-0.000140708
-0.000214024
-0.000282603
-0.000346015
-0.000403985
-0.000456369
-0.000503141
-0.000544355
-0.000580122
-0.000610582
-0.000635874
-0.00065611
-0.000671351
-0.000681578
-0.000686671
-0.000686541
-0.000681194
-0.000668772
-0.000644746
8.62133e-05
3.46603e-05
6.1607e-07
-2.49616e-05
-4.60273e-05
-6.30385e-05
-7.67426e-05
-8.80263e-05
-9.76317e-05
-0.000106164
-0.000114117
-0.000121881
-0.00012975
-0.00013794
-0.000146594
-0.000155794
-0.000165573
-0.000175921
-0.000186796
-0.000198128
-0.000209827
-0.000221786
-0.000233886
-0.000246
-0.000257995
-0.000269732
-0.000281067
-0.000291854
-0.000301942
-0.000311175
-0.000319388
-0.00032641
-0.000332065
-0.000336163
-0.000338505
-0.000338883
-0.00033708
-0.000332874
-0.000326035
-0.000316332
-0.00030354
-0.000287437
-0.000267819
-0.000244501
-0.000217326
-0.000186178
-0.000150983
-0.000111714
-6.84552e-05
-2.14867e-05
2.92666e-05
8.32971e-05
0.000140151
0.000199293
0.000260048
0.000321622
0.00038311
0.000443509
0.000501727
0.000556612
0.000606979
0.000651638
0.000689438
0.000719299
0.000740257
0.000751507
0.000752434
0.000742647
0.000722006
0.000690639
0.00064894
0.000597566
0.000537416
0.0004696
0.000395399
0.000316217
0.000233526
0.00014881
6.3516e-05
-2.0997e-05
-0.000103499
-0.00018292
-0.000258367
-0.000329138
-0.000394717
-0.000454765
-0.000509097
-0.00055766
-0.000600504
-0.000637745
-0.000669532
-0.000696023
-0.000717347
-0.000733579
-0.000744711
-0.000750623
-0.000751224
-0.000746507
-0.000734617
-0.000711056
5.8256e-05
3.46866e-06
-3.25018e-05
-5.93429e-05
-8.1328e-05
-9.89953e-05
-0.000113181
-0.000124859
-0.000134837
-0.00014377
-0.000152188
-0.000160506
-0.000169037
-0.000178008
-0.000187568
-0.000197807
-0.000208759
-0.000220421
-0.000232751
-0.000245687
-0.000259144
-0.000273023
-0.000287218
-0.000301614
-0.000316096
-0.000330544
-0.000344839
-0.000358858
-0.000372476
-0.000385568
-0.000397998
-0.000409624
-0.000420295
-0.000429849
-0.000438107
-0.000444877
-0.000449953
-0.000453112
-0.000454115
-0.00045271
-0.000448634
-0.000441614
-0.000431376
-0.000417644
-0.000400153
-0.000378656
-0.000352942
-0.000322837
-0.000288175
-0.000248863
-0.000205314
-0.000157061
-0.000104719
-4.86452e-05
1.06639e-05
7.2545e-05
0.000136178
0.000200602
0.000264723
0.000327333
0.000387137
0.000442785
0.000492913
0.000536186
0.000571345
0.000597263
0.000612987
0.000617792
0.000611211
0.000593068
0.000563496
0.000522939
0.00047214
0.00041212
0.00034413
0.000269609
0.000190117
0.000107271
2.26842e-05
-6.20953e-05
-0.000145641
-0.000226688
-0.000304168
-0.000377217
-0.000445189
-0.000507637
-0.000564303
-0.000615082
-0.000659994
-0.000699144
-0.000732683
-0.000760777
-0.000783568
-0.000801143
-0.000813499
-0.000820522
-0.00082211
-0.000818241
-0.000807065
-0.000784128
2.16449e-05
-3.62537e-05
-7.40674e-05
-0.000102112
-0.000124976
-0.00014328
-0.00015795
-0.000170043
-0.000180435
-0.000189826
-0.00019878
-0.000207737
-0.000217025
-0.000226882
-0.000237463
-0.000248862
-0.000261119
-0.000274233
-0.000288172
-0.000302877
-0.000318276
-0.000334284
-0.00035081
-0.000367764
-0.000385053
-0.00040259
-0.000420288
-0.000438065
-0.000455838
-0.000473523
-0.000491033
-0.000508273
-0.000525136
-0.000541504
-0.00055724
-0.000572187
-0.000586164
-0.000598962
-0.000610347
-0.00062005
-0.000627774
-0.000633187
-0.00063593
-0.000635617
-0.000631842
-0.000624186
-0.000612238
-0.000595606
-0.000573893
-0.000546696
-0.00051379
-0.00047541
-0.000431067
-0.00038108
-0.000325715
-0.000265431
-0.0002009
-0.000132985
-6.27433e-05
8.58859e-06
7.96152e-05
0.000148815
0.000214582
0.000275271
0.000329263
0.000375016
0.000411135
0.000436434
0.00044999
0.000451189
0.000439768
0.00041583
0.000379849
0.000332654
0.000275394
0.000209485
0.000136548
5.83344e-05
-2.33578e-05
-0.000106754
-0.000190176
-0.000272106
-0.000351226
-0.000426449
-0.000496929
-0.000562057
-0.000621447
-0.000674903
-0.00072238
-0.000763947
-0.000799741
-0.000829921
-0.000854635
-0.000873976
-0.000887943
-0.000896421
-0.000899297
-0.000896531
-0.000886278
-0.00086414
-2.433e-05
-8.52127e-05
-0.000124786
-0.000153976
-0.000177681
-0.000196605
-0.000211764
-0.000224299
-0.000235148
-0.000245057
-0.000254624
-0.000264308
-0.000274453
-0.000285305
-0.000297027
-0.000309717
-0.000323421
-0.000338144
-0.000353861
-0.000370527
-0.000388083
-0.000406465
-0.00042561
-0.000445457
-0.000465951
-0.000487049
-0.000508714
-0.000530919
-0.000553642
-0.000576865
-0.000600568
-0.000624727
-0.000649308
-0.000674261
-0.000699517
-0.000724977
-0.000750509
-0.000775942
-0.000801055
-0.000825576
-0.000849173
-0.000871449
-0.000891943
-0.000910126
-0.000925409
-0.000937149
-0.000944665
-0.000947257
-0.000944212
-0.0009348
-0.000918357
-0.00089456
-0.000863028
-0.000823266
-0.000775362
-0.000719478
-0.000656048
-0.000585762
-0.00050958
-0.000428723
-0.000344668
-0.000259105
-0.000173907
-9.10731e-05
-1.26615e-05
5.92787e-05
0.000122786
0.000176071
0.000217595
0.000246139
0.000260868
0.000261371
0.00024769
0.000220319
0.000180182
0.000128585
6.71499e-05
-2.26721e-06
-7.76723e-05
-0.000157029
-0.000238352
-0.00031979
-0.000399694
-0.000476659
-0.000549556
-0.00061753
-0.000679995
-0.000736599
-0.000787189
-0.000831756
-0.000870391
-0.000903231
-0.000930413
-0.000952024
-0.000968062
-0.000978404
-0.000982925
-0.000981557
-0.000972466
-0.000951328
-8.03642e-05
-0.000144099
-0.000185347
-0.000215626
-0.000240136
-0.000259668
-0.000275327
-0.000288335
-0.00029969
-0.000310185
-0.000320446
-0.000330952
-0.000342062
-0.00035403
-0.000367024
-0.00038115
-0.00039646
-0.000412967
-0.00043066
-0.000449508
-0.000469478
-0.000490534
-0.000512648
-0.000535804
-0.000560001
-0.000585254
-0.000611597
-0.000639081
-0.000667769
-0.000697735
-0.000729057
-0.000761814
-0.000796076
-0.000831897
-0.000869307
-0.000908301
-0.000948826
-0.000990769
-0.00103395
-0.00107809
-0.00112284
-0.00116771
-0.00121212
-0.00125535
-0.00129659
-0.00133488
-0.00136921
-0.00139846
-0.00142149
-0.00143712
-0.0014442
-0.00144174
-0.00142924
-0.00140505
-0.00136932
-0.00132173
-0.00126234
-0.00119157
-0.0011102
-0.00101939
-0.000920647
-0.000815821
-0.000707055
-0.00059674
-0.000487441
-0.000381811
-0.000282501
-0.000192059
-0.000112823
-4.68192e-05
4.32792e-06
3.94748e-05
5.80118e-05
5.9894e-05
4.56426e-05
1.63077e-05
-2.6593e-05
-8.11623e-05
-0.000145232
-0.000216481
-0.000292561
-0.000371204
-0.000450322
-0.000528081
-0.000602948
-0.000673714
-0.000739491
-0.000799686
-0.000853958
-0.000902168
-0.000944316
-0.000980485
-0.00101077
-0.00103525
-0.00105391
-0.0010666
-0.00107318
-0.00107356
-0.00106591
-0.00104599
-0.000147136
-0.000213586
-0.000256423
-0.000287736
-0.00031302
-0.000333154
-0.000349328
-0.000362846
-0.000374766
-0.000385921
-0.000396966
-0.000408401
-0.000420595
-0.000433811
-0.000448226
-0.000463952
-0.000481049
-0.000499545
-0.000519445
-0.000540744
-0.000563439
-0.000587534
-0.000613051
-0.000640034
-0.000668554
-0.000698708
-0.000730626
-0.000764462
-0.000800398
-0.000838635
-0.000879387
-0.000922873
-0.000969313
-0.00101891
-0.00107183
-0.0011282
-0.0011881
-0.00125148
-0.00131824
-0.00138811
-0.00146068
-0.0015354
-0.00161149
-0.00168801
-0.00176384
-0.00183764
-0.00190793
-0.0019731
-0.00203142
-0.00208113
-0.00212049
-0.00214767
-0.00216098
-0.00216001
-0.00214267
-0.00210851
-0.00205719
-0.00198875
-0.00190372
-0.0018031
-0.00168839
-0.00156155
-0.00142499
-0.0012815
-0.00113419
-0.000986406
-0.000841604
-0.000703245
-0.000574655
-0.000458894
-0.000358627
-0.000276001
-0.000212552
-0.000169134
-0.000145882
-0.00014222
-0.000156912
-0.000188141
-0.000233632
-0.000290791
-0.000356864
-0.000429081
-0.000504799
-0.000581614
-0.000657443
-0.000730571
-0.000799672
-0.000863788
-0.00092229
-0.000974822
-0.00102123
-0.00106148
-0.00109562
-0.00112367
-0.00114558
-0.00116119
-0.00117033
-0.00117285
-0.00116695
-0.00114851
-0.000225302
-0.000294325
-0.000338663
-0.000370958
-0.00039699
-0.000417723
-0.000434437
-0.000448512
-0.000461064
-0.000472965
-0.000484897
-0.000497378
-0.000510791
-0.000525408
-0.000541412
-0.000558927
-0.000578025
-0.000598752
-0.000621137
-0.000645209
-0.000671007
-0.00069859
-0.000728047
-0.0007595
-0.000793116
-0.000829103
-0.000867714
-0.000909247
-0.000954039
-0.00100246
-0.00105491
-0.00111181
-0.00117356
-0.00124057
-0.00131321
-0.00139179
-0.00147652
-0.00156751
-0.0016647
-0.00176786
-0.00187653
-0.00199001
-0.00210731
-0.00222719
-0.0023481
-0.00246823
-0.00258553
-0.0026977
-0.00280233
-0.00289691
-0.00297888
-0.0030457
-0.0030949
-0.00312465
-0.00313311
-0.00311875
-0.00308065
-0.0030184
-0.00293216
-0.00282269
-0.00269138
-0.00254026
-0.00237194
-0.00218961
-0.00199693
-0.00179798
-0.0015971
-0.00139881
-0.0012076
-0.00102778
-0.000863333
-0.000717711
-0.000593711
-0.000493338
-0.000417716
-0.000367056
-0.000340669
-0.00033703
-0.000353901
-0.000388484
-0.000437614
-0.000497954
-0.000566184
-0.000639171
-0.000714098
-0.000788559
-0.000860606
-0.00092875
-0.000991929
-0.00104945
-0.0011009
-0.00114609
-0.00118492
-0.00121734
-0.00124324
-0.00126243
-0.00127469
-0.00127983
-0.00127605
-0.00125936
-0.000315497
-0.00038694
-0.000432694
-0.00046592
-0.000492676
-0.000514016
-0.000531301
-0.000545991
-0.000559253
-0.000571998
-0.000584936
-0.000598601
-0.000613389
-0.000629579
-0.00064737
-0.000666894
-0.000688244
-0.00071149
-0.000736695
-0.000763931
-0.000793295
-0.000824916
-0.00085897
-0.000895687
-0.000935353
-0.000978323
-0.00102501
-0.00107591
-0.00113155
-0.00119253
-0.00125949
-0.0013331
-0.00141404
-0.00150297
-0.00160052
-0.00170723
-0.00182351
-0.00194963
-0.00208561
-0.00223122
-0.00238594
-0.00254886
-0.00271872
-0.00289385
-0.00307219
-0.0032513
-0.00342838
-0.00360037
-0.00376396
-0.0039157
-0.00405212
-0.00416976
-0.00426526
-0.00433561
-0.00437848
-0.00439135
-0.00437272
-0.00432158
-0.00423761
-0.00412122
-0.00397363
-0.0037968
-0.0035935
-0.00336724
-0.00312219
-0.00286316
-0.00259541
-0.00232457
-0.00205644
-0.00179679
-0.00155116
-0.00132463
-0.00112164
-0.000945722
-0.000799429
-0.000684167
-0.000600178
-0.000546556
-0.00052135
-0.000521726
-0.000544177
-0.000584775
-0.000639422
-0.00070409
-0.000775022
-0.000848888
-0.000922885
-0.000994772
-0.00106286
-0.00112594
-0.00118324
-0.00123425
-0.00127871
-0.0013164
-0.00134715
-0.00137067
-0.00138671
-0.00139499
-0.00139376
-0.00137914
-0.000418323
-0.00049203
-0.000539108
-0.000573217
-0.000600681
-0.000622641
-0.000640541
-0.000655914
-0.000669979
-0.000683686
-0.000697766
-0.000712773
-0.000729113
-0.000747082
-0.000766887
-0.000788682
-0.000812583
-0.000838692
-0.000867118
-0.000897991
-0.00093148
-0.000967809
-0.00100727
-0.00105021
-0.0010971
-0.00114846
-0.00120492
-0.00126721
-0.00133613
-0.00141257
-0.00149747
-0.00159183
-0.00169667
-0.00181299
-0.00194173
-0.00208372
-0.00223961
-0.00240984
-0.00259451
-0.0027934
-0.00300581
-0.00323059
-0.00346607
-0.00371005
-0.00395979
-0.00421207
-0.00446321
-0.00470914
-0.00494554
-0.00516788
-0.0053716
-0.00555217
-0.00570524
-0.00582678
-0.00591325
-0.00596173
-0.00596971
-0.00593552
-0.00585829
-0.00573802
-0.00557561
-0.0053729
-0.00513265
-0.00485859
-0.00455531
-0.00422824
-0.00388353
-0.00352791
-0.00316854
-0.00281276
-0.00246788
-0.0021409
-0.00183822