/*--------------------------------*- C++ -*----------------------------------*\
  =========                 |
  \\      /  F ield         | OpenFOAM: The Open Source CFD Toolbox
   \\    /   O peration     | Website:  https://openfoam.org
    \\  /    A nd           | Version:  9
     \\/     M anipulation  |
\*---------------------------------------------------------------------------*/
FoamFile
{
    format      ascii;
    class       surfaceScalarField;
    location    "1";
    object      phi;
}
// * * * * * * * * * * * * * * * * * * * * * * * * * * * * * * * * * * * * * //

dimensions      [0 3 -1 0 0 0 0];

internalField   nonuniform List<scalar> 
19800
(
1.38453e-10
-1.3844e-10
2.94618e-10
-1.56151e-10
3.36718e-10
-4.21154e-11
2.14601e-10
1.2212e-10
-7.29512e-11
2.87555e-10
-5.11359e-10
4.38417e-10
-1.07854e-09
5.67183e-10
-1.75033e-09
6.71781e-10
-2.50415e-09
7.53821e-10
-3.32053e-09
8.16373e-10
-4.1835e-09
8.62977e-10
-5.08064e-09
8.9713e-10
-6.00266e-09
9.22023e-10
-6.94305e-09
9.40392e-10
-7.89752e-09
9.5447e-10
-8.86352e-09
9.65992e-10
-9.83975e-09
9.76228e-10
-1.08258e-08
9.86034e-10
-1.18217e-08
9.95916e-10
-1.28278e-08
1.00609e-09
-1.38443e-08
1.01654e-09
-1.48714e-08
1.02708e-09
-1.59088e-08
1.03742e-09
-1.6956e-08
1.04714e-09
-1.80118e-08
1.0558e-09
-1.90747e-08
1.0629e-09
-2.01426e-08
1.06795e-09
-2.12131e-08
1.07043e-09
-2.22829e-08
1.06983e-09
-2.33485e-08
1.06562e-09
-2.44058e-08
1.0573e-09
-2.54502e-08
1.04435e-09
-2.64764e-08
1.02624e-09
-2.74789e-08
1.00244e-09
-2.84513e-08
9.72441e-10
-2.9387e-08
9.357e-10
-3.02787e-08
8.91691e-10
-3.11186e-08
8.39904e-10
-3.18984e-08
7.79853e-10
-3.26095e-08
7.11088e-10
-3.32427e-08
6.33218e-10
-3.37887e-08
5.45934e-10
-3.42377e-08
4.49026e-10
-3.45801e-08
3.42407e-10
-3.48062e-08
2.26149e-10
-3.49067e-08
1.00493e-10
-3.48726e-08
-3.41314e-11
-3.46955e-08
-1.77074e-10
-3.43681e-08
-3.27436e-10
-3.3884e-08
-4.84086e-10
-3.32384e-08
-6.4565e-10
-3.24278e-08
-8.10511e-10
-3.1451e-08
-9.76817e-10
-3.03085e-08
-1.14251e-09
-2.90032e-08
-1.30536e-09
-2.75402e-08
-1.46299e-09
-2.59272e-08
-1.61293e-09
-2.41745e-08
-1.75271e-09
-2.22947e-08
-1.87984e-09
-2.03027e-08
-1.99198e-09
-1.82158e-08
-2.08691e-09
-1.60531e-08
-2.16268e-09
-1.38355e-08
-2.21762e-09
-1.15851e-08
-2.25042e-09
-9.32491e-09
-2.26018e-09
-7.07848e-09
-2.24643e-09
-4.86929e-09
-2.20919e-09
-2.72037e-09
-2.14892e-09
-6.53784e-10
-2.06658e-09
1.30979e-09
-1.96358e-09
3.15143e-09
-1.84164e-09
4.85434e-09
-1.70291e-09
6.40412e-09
-1.54979e-09
7.78902e-09
-1.38489e-09
8.99997e-09
-1.21095e-09
1.00307e-08
-1.03073e-09
1.08777e-08
-8.46965e-10
1.15399e-08
-6.62282e-10
1.20191e-08
-4.79143e-10
1.23189e-08
-2.99778e-10
1.2445e-08
-1.2617e-10
1.2405e-08
4.00276e-11
1.22077e-08
1.97318e-10
1.18631e-08
3.44606e-10
1.13822e-08
4.80934e-10
1.07766e-08
6.05524e-10
1.0059e-08
7.17666e-10
9.24235e-09
8.16612e-10
8.34093e-09
9.01423e-10
7.37015e-09
9.70786e-10
6.34734e-09
1.0228e-09
5.29263e-09
1.05471e-09
4.23012e-09
1.06252e-09
3.18945e-09
1.04067e-09
2.20786e-09
9.81576e-10
1.33227e-09
8.75594e-10
6.20111e-10
7.12165e-10
1.364e-10
4.83713e-10
-6.27277e-11
1.9913e-10
-6.27278e-11
1.58682e-10
-2.97107e-10
2.22711e-10
-2.20193e-10
-2.89692e-12
1.83507e-10
-5.94341e-10
7.13552e-10
-1.57538e-09
1.26859e-09
-2.92238e-09
1.78542e-09
-4.59187e-09
2.23668e-09
-6.53358e-09
2.61349e-09
-8.69731e-09
2.91754e-09
-1.10372e-08
3.15625e-09
-1.35138e-08
3.33961e-09
-1.6095e-08
3.47827e-09
-1.87554e-08
3.58244e-09
-2.14762e-08
3.66117e-09
-2.42438e-08
3.72207e-09
-2.7049e-08
3.77121e-09
-2.98859e-08
3.81313e-09
-3.27509e-08
3.85101e-09
-3.56418e-08
3.88682e-09
-3.85572e-08
3.92153e-09
-4.1496e-08
3.95527e-09
-4.44564e-08
3.98756e-09
-4.74364e-08
4.01743e-09
-5.04329e-08
4.0436e-09
-5.34416e-08
4.06452e-09
-5.64573e-08
4.07855e-09
-5.94733e-08
4.08393e-09
-6.24817e-08
4.07886e-09
-6.54734e-08
4.06155e-09
-6.8438e-08
4.03019e-09
-7.13637e-08
3.98299e-09
-7.42375e-08
3.91815e-09
-7.70451e-08
3.83388e-09
-7.9771e-08
3.72838e-09
-8.23985e-08
3.59987e-09
-8.49094e-08
3.44659e-09
-8.72845e-08
3.26679e-09
-8.95034e-08
3.05883e-09
-9.15447e-08
2.82114e-09
-9.33859e-08
2.55235e-09
-9.5004e-08
2.25129e-09
-9.63751e-08
1.91708e-09
-9.74753e-08
1.54923e-09
-9.82806e-08
1.14769e-09
-9.87674e-08
7.12947e-10
-9.8913e-08
2.4608e-10
-9.86961e-08
-2.51047e-10
-9.8097e-08
-7.76117e-10
-9.70988e-08
-1.32564e-09
-9.56874e-08
-1.89553e-09
-9.38522e-08
-2.48085e-09
-9.15868e-08
-3.07585e-09
-8.88896e-08
-3.67403e-09
-8.57639e-08
-4.26822e-09
-8.22186e-08
-4.85067e-09
-7.82684e-08
-5.41322e-09
-7.39339e-08
-5.94745e-09
-6.92417e-08
-6.44485e-09
-6.42245e-08
-6.89705e-09
-5.89205e-08
-7.29603e-09
-5.3373e-08
-7.63433e-09
-4.76304e-08
-7.90532e-09
-4.17447e-08
-8.10333e-09
-3.57712e-08
-8.2239e-09
-2.97675e-08
-8.26393e-09
-2.37921e-08
-8.22177e-09
-1.7904e-08
-8.09732e-09
-1.21609e-08
-7.89205e-09
-6.61844e-09
-7.60901e-09
-1.32931e-09
-7.25271e-09
3.65809e-09
-6.82903e-09
8.30009e-09
-6.34491e-09
1.25588e-08
-5.80846e-09
1.64023e-08
-5.22842e-09
1.98054e-08
-4.61403e-09
2.27494e-08
-3.97474e-09
2.52224e-08
-3.31998e-09
2.7219e-08
-2.65891e-09
2.87401e-08
-2.00018e-09
2.97921e-08
-1.3518e-09
3.03869e-08
-7.2099e-10
3.0541e-08
-1.14101e-10
3.0275e-08
4.63334e-10
2.9613e-08
1.00667e-09
2.8582e-08
1.51187e-09
2.72122e-08
1.97539e-09
2.55359e-08
2.3939e-09
2.35887e-08
2.76384e-09
2.14091e-08
3.08107e-09
1.90397e-08
3.34019e-09
1.65284e-08
3.53401e-09
1.39304e-08
3.65275e-09
1.13096e-08
3.68333e-09
8.74154e-09
3.60871e-09
6.31541e-09
3.40771e-09
4.13471e-09
3.0563e-09
2.31435e-09
2.53252e-09
9.70476e-10
1.82759e-09
1.98318e-10
9.71288e-10
1.3559e-10
4.52409e-11
-3.42364e-10
-1.89704e-10
1.47586e-11
-8.82885e-10
8.76694e-10
-2.12054e-09
1.95122e-09
-3.91323e-09
3.06128e-09
-6.2313e-09
4.10348e-09
-9.01938e-09
5.02476e-09
-1.2211e-08
5.80512e-09
-1.57382e-08
6.44472e-09
-1.95372e-08
6.95525e-09
-2.35519e-08
7.35427e-09
-2.7735e-08
7.66142e-09
-3.20486e-08
7.89603e-09
-3.64631e-08
8.07567e-09
-4.09564e-08
8.21537e-09
-4.55125e-08
8.32727e-09
-5.012e-08
8.42067e-09
-5.47712e-08
8.50214e-09
-5.94602e-08
8.57589e-09
-6.41828e-08
8.64408e-09
-6.89347e-08
8.7072e-09
-7.37116e-08
8.76445e-09
-7.85082e-08
8.81402e-09
-8.3318e-08
8.85341e-09
-8.81331e-08
8.8796e-09
-9.29438e-08
8.88928e-09
-9.77388e-08
8.87896e-09
-1.02505e-07
8.84504e-09
-1.07227e-07
8.7839e-09
-1.11889e-07
8.69194e-09
-1.16472e-07
8.56555e-09
-1.20955e-07
8.40115e-09
-1.25316e-07
8.19519e-09
-1.29532e-07
7.94412e-09
-1.33576e-07
7.64444e-09
-1.37422e-07
7.2927e-09
-1.41041e-07
6.88558e-09
-1.44402e-07
6.4199e-09
-1.47474e-07
5.89273e-09
-1.50223e-07
5.30151e-09
-1.52616e-07
4.64415e-09
-1.54618e-07
3.91919e-09
-1.56195e-07
3.12593e-09
-1.57312e-07
2.26461e-09
-1.57935e-07
1.33656e-09
-1.58034e-07
3.44443e-10
-1.57577e-07
-7.08069e-10
-1.56537e-07
-1.81539e-09
-1.54892e-07
-2.97046e-09
-1.52623e-07
-4.16472e-09
-1.49716e-07
-5.38794e-09
-1.46164e-07
-6.62833e-09
-1.41965e-07
-7.87263e-09
-1.37127e-07
-9.10632e-09
-1.31664e-07
-1.03138e-08
-1.25599e-07
-1.14786e-08
-1.18962e-07
-1.25838e-08
-1.11795e-07
-1.36125e-08
-1.04144e-07
-1.45479e-08
-9.60656e-08
-1.53741e-08
-8.76238e-08
-1.60761e-08
-7.88884e-08
-1.66407e-08
-6.99351e-08
-1.70566e-08
-6.08442e-08
-1.73148e-08
-5.16992e-08
-1.74089e-08
-4.25855e-08
-1.73355e-08
-3.35887e-08
-1.70941e-08
-2.47934e-08
-1.66874e-08
-1.62813e-08
-1.61211e-08
-8.13027e-09
-1.54038e-08
-4.1239e-10
-1.45469e-08
6.80696e-09
-1.35643e-08
1.34698e-08
-1.24713e-08
1.9527e-08
-1.12857e-08
2.49386e-08
-1.00256e-08
2.96738e-08
-8.70998e-09
3.37117e-08
-7.35792e-09
3.70408e-08
-5.98801e-09
3.96587e-08
-4.61804e-09
4.15715e-08
-3.26465e-09
4.27936e-08
-1.94304e-09
4.33463e-08
-6.66829e-10
4.32577e-08
5.51931e-10
4.25616e-08
1.70275e-09
4.12971e-08
2.77636e-09
3.95081e-08
3.76441e-09
3.72432e-08
4.65885e-09
3.45557e-08
5.45133e-09
3.15045e-08
6.13226e-09
2.81548e-08
6.68989e-09
2.45796e-08
7.10916e-09
2.08618e-08
7.37061e-09
1.70958e-08
7.44933e-09
1.33901e-08
7.31442e-09
9.86833e-09
6.92946e-09
6.66887e-09
6.25575e-09
3.94073e-09
5.26067e-09
1.8342e-09
3.93413e-09
4.84448e-10
2.32104e-09
6.20037e-10
-1.31515e-10
-2.10843e-10
-7.75512e-10
6.58738e-10
-2.07193e-09
2.17312e-09
-4.07145e-09
3.95074e-09
-6.76915e-09
5.75897e-09
-1.01206e-08
7.45489e-09
-1.40575e-08
8.96167e-09
-1.85007e-08
1.02483e-08
-2.33693e-08
1.13133e-08
-2.85869e-08
1.21729e-08
-3.40853e-08
1.28527e-08
-3.98063e-08
1.33824e-08
-4.57019e-08
1.37916e-08
-5.17339e-08
1.41077e-08
-5.78728e-08
1.43543e-08
-6.40963e-08
1.45508e-08
-7.03878e-08
1.47121e-08
-7.67346e-08
1.4849e-08
-8.3127e-08
1.49683e-08
-8.95568e-08
1.50738e-08
-9.60161e-08
1.51665e-08
-1.02497e-07
1.52453e-08
-1.0899e-07
1.53074e-08
-1.15486e-07
1.53489e-08
-1.21971e-07
1.5365e-08
-1.28433e-07
1.53507e-08
-1.34854e-07
1.53002e-08
-1.41217e-07
1.52079e-08
-1.47501e-07
1.50681e-08
-1.53684e-07
1.4875e-08
-1.59741e-07
1.4623e-08
-1.65647e-07
1.43064e-08
-1.71371e-07
1.39196e-08
-1.76884e-07
1.34571e-08
-1.82153e-07
1.29134e-08
-1.87144e-07
1.22831e-08
-1.91819e-07
1.15611e-08
-1.96142e-07
1.07424e-08
-2.00072e-07
9.82272e-09
-2.03568e-07
8.79811e-09
-2.06589e-07
7.66553e-09
-2.09093e-07
6.42297e-09
-2.11037e-07
5.06966e-09
-2.12379e-07
3.60637e-09
-2.13078e-07
2.03566e-09
-2.13096e-07
3.62281e-10
-2.12396e-07
-1.4077e-09
-2.10947e-07
-3.2645e-09
-2.08721e-07
-5.1966e-09
-2.05696e-07
-7.1898e-09
-2.01856e-07
-9.22732e-09
-1.97195e-07
-1.12899e-08
-1.91711e-07
-1.3356e-08
-1.85416e-07
-1.54022e-08
-1.78326e-07
-1.7403e-08
-1.70473e-07
-1.93322e-08
-1.61894e-07
-2.11626e-08
-1.5264e-07
-2.28667e-08
-1.4277e-07
-2.44177e-08
-1.32354e-07
-2.579e-08
-1.2147e-07
-2.69597e-08
-1.10206e-07
-2.79053e-08
-9.86541e-08
-2.86084e-08
-8.69144e-08
-2.90545e-08
-7.50903e-08
-2.9233e-08
-6.32878e-08
-2.91379e-08
-5.16139e-08
-2.87681e-08
-4.01741e-08
-2.81272e-08
-2.90714e-08
-2.72238e-08
-1.8404e-08
-2.60712e-08
-8.26381e-09
-2.46871e-08
1.26483e-09
-2.30929e-08
1.01072e-08
-2.13137e-08
1.81982e-08
-1.93767e-08
2.54841e-08
-1.73114e-08
3.19224e-08
-1.51483e-08
3.74828e-08
-1.29183e-08
4.21464e-08
-1.06516e-08
4.5906e-08
-8.37768e-09
4.87654e-08
-6.12406e-09
5.07387e-08
-3.91634e-09
5.18496e-08
-1.77772e-09
5.21305e-08
2.71029e-10
5.16219e-08
2.21139e-09
5.03714e-08
4.02682e-09
4.84337e-08
5.70214e-09
4.58698e-08
7.22272e-09
4.27477e-08
8.57346e-09
3.91424e-08
9.73754e-09
3.51373e-08
1.0695e-08
3.08252e-08
1.14213e-08
2.63102e-08
1.18856e-08
2.17095e-08
1.205e-08
1.71551e-08
1.18689e-08
1.27944e-08
1.12901e-08
8.79035e-09
1.02598e-08
5.31871e-09
8.73231e-09
2.56443e-09
6.6884e-09
7.1942e-10
4.16605e-09
1.33946e-09
-3.28931e-10
1.18091e-10
-1.44885e-09
1.77865e-09
-3.42568e-09
4.14993e-09
-6.26714e-09
6.7922e-09
-9.93796e-09
9.42979e-09
-1.43725e-08
1.18894e-08
-1.94869e-08
1.4076e-08
-2.51891e-08
1.59506e-08
-3.13873e-08
1.75115e-08
-3.79951e-08
1.87807e-08
-4.49353e-08
1.97929e-08
-5.21412e-08
2.05883e-08
-5.95574e-08
2.12078e-08
-6.71388e-08
2.16891e-08
-7.48498e-08
2.20653e-08
-8.26625e-08
2.23635e-08
-9.05553e-08
2.26049e-08
-9.85109e-08
2.28046e-08
-1.06515e-07
2.29727e-08
-1.14556e-07
2.31146e-08
-1.22621e-07
2.32318e-08
-1.30699e-07
2.3323e-08
-1.38776e-07
2.33845e-08
-1.46838e-07
2.34108e-08
-1.54868e-07
2.33954e-08
-1.62849e-07
2.33311e-08
-1.70759e-07
2.32102e-08
-1.78576e-07
2.30247e-08
-1.86274e-07
2.27667e-08
-1.93828e-07
2.24283e-08
-2.01206e-07
2.20017e-08
-2.08379e-07
2.14789e-08
-2.15311e-07
2.08524e-08
-2.21969e-07
2.01144e-08
-2.28313e-07
1.92574e-08
-2.34304e-07
1.8274e-08
-2.399e-07
1.71572e-08
-2.45057e-07
1.59001e-08
-2.49732e-07
1.44968e-08
-2.53875e-07
1.29419e-08
-2.57441e-07
1.12315e-08
-2.60381e-07
9.3628e-09
-2.62647e-07
7.3352e-09
-2.6419e-07
5.15005e-09
-2.64966e-07
2.81133e-09
-2.6493e-07
3.26272e-10
-2.64041e-07
-2.29635e-09
-2.62264e-07
-5.04196e-09
-2.59567e-07
-7.89393e-09
-2.55925e-07
-1.08317e-08
-2.51321e-07
-1.3831e-08
-2.45747e-07
-1.68641e-08
-2.39203e-07
-1.99002e-08
-2.31699e-07
-2.29055e-08
-2.23258e-07
-2.58438e-08
-2.13913e-07
-2.86773e-08
-2.03709e-07
-3.13672e-08
-1.92701e-07
-3.38743e-08
-1.80959e-07
-3.61602e-08
-1.6856e-07
-3.81882e-08
-1.55596e-07
-3.99237e-08
-1.42166e-07
-4.13359e-08
-1.28376e-07
-4.23982e-08
-1.14342e-07
-4.30891e-08
-1.00182e-07
-4.33929e-08
-8.60193e-08
-4.33002e-08
-7.19788e-08
-4.28086e-08
-5.81836e-08
-4.19223e-08
-4.47548e-08
-4.06526e-08
-3.18084e-08
-3.90176e-08
-1.9454e-08
-3.70415e-08
-7.79264e-09
-3.47543e-08
3.08453e-09
-3.21909e-08
1.3098e-08
-2.93901e-08
2.21804e-08
-2.63937e-08
3.02775e-08
-2.32455e-08
3.7349e-08
-1.99897e-08
4.33679e-08
-1.66706e-08
4.8321e-08
-1.33308e-08
5.22082e-08
-1.00112e-08
5.50417e-08
-6.74985e-09
5.68455e-08
-3.58157e-09
5.76546e-08
-5.38017e-10
5.75136e-08
2.35233e-09
5.64768e-08
5.06369e-09
5.46067e-08
7.57221e-09
5.19745e-08
9.85491e-09
4.86596e-08
1.18884e-08
4.47502e-08
1.3647e-08
4.03439e-08
1.51013e-08
3.55493e-08
1.62159e-08
3.04869e-08
1.6948e-08
2.5291e-08
1.72459e-08
2.01113e-08
1.70486e-08
1.51138e-08
1.62877e-08
1.04815e-08
1.4892e-08
6.41558e-09
1.27982e-08
3.13719e-09
9.9668e-09
8.95894e-10
6.40734e-09
2.23535e-09
-5.33809e-10
6.51906e-10
-2.15794e-09
3.40278e-09
-4.85911e-09
6.85108e-09
-8.59078e-09
1.05239e-08
-1.32791e-08
1.41181e-08
-1.88313e-08
1.74416e-08
-2.5144e-08
2.03887e-08
-3.21112e-08
2.29177e-08
-3.96299e-08
2.50302e-08
-4.7605e-08
2.67558e-08
-5.59517e-08
2.81396e-08
-6.4597e-08
2.92335e-08
-7.34793e-08
3.00901e-08
-8.25484e-08
3.07582e-08
-9.17635e-08
3.12804e-08
-1.01092e-07
3.16921e-08
-1.10508e-07
3.20208e-08
-1.1999e-07
3.22863e-08
-1.29519e-07
3.25019e-08
-1.39079e-07
3.26747e-08
-1.48654e-07
3.28069e-08
-1.58228e-07
3.28969e-08
-1.67783e-07
3.29399e-08
-1.77302e-07
3.29293e-08
-1.86763e-07
3.28566e-08
-1.96145e-07
3.27127e-08
-2.05422e-07
3.24877e-08
-2.14569e-07
3.21716e-08
-2.23557e-07
3.17544e-08
-2.32355e-07
3.12261e-08
-2.4093e-07
3.05767e-08
-2.49247e-07
2.97963e-08
-2.5727e-07
2.88752e-08
-2.64959e-07
2.78036e-08
-2.72273e-07
2.65718e-08
-2.7917e-07
2.51705e-08
-2.85603e-07
2.35903e-08
-2.91525e-07
2.18227e-08
-2.96888e-07
1.98597e-08
-3.01641e-07
1.76946e-08
-3.05732e-07
1.53221e-08
-3.09108e-07
1.27388e-08
-3.11716e-07
9.94384e-09
-3.13506e-07
6.93913e-09
-3.14424e-07
3.73002e-09
-3.14424e-07
3.26311e-10
-3.1346e-07
-3.26048e-09
-3.11491e-07
-7.01071e-09
-3.08483e-07
-1.09024e-08
-3.04407e-07
-1.49081e-08
-2.99242e-07
-1.89956e-08
-2.92978e-07
-2.31281e-08
-2.85614e-07
-2.72646e-08
-2.77159e-07
-3.13601e-08
-2.67636e-07
-3.53668e-08
-2.57079e-07
-3.92341e-08
-2.45536e-07
-4.29104e-08
-2.33067e-07
-4.63435e-08
-2.19745e-07
-4.94821e-08
-2.05656e-07
-5.22768e-08
-1.90899e-07
-5.46812e-08
-1.75581e-07
-5.66536e-08
-1.59822e-07
-5.81576e-08
-1.43747e-07
-5.91636e-08
-1.27491e-07
-5.96495e-08
-1.11189e-07
-5.96014e-08
-9.49834e-08
-5.90145e-08
-7.90127e-08
-5.78931e-08
-6.34148e-08
-5.62505e-08
-4.8323e-08
-5.41094e-08
-3.38637e-08
-5.15007e-08
-2.01548e-08
-4.84632e-08
-7.30314e-09
-4.50425e-08
4.59635e-09
-4.12896e-08
1.54626e-08
-3.726e-08
2.5229e-08
-3.30119e-08
3.38443e-08
-2.8605e-08
4.12726e-08
-2.40988e-08
4.74935e-08
-1.95518e-08
5.25019e-08
-1.50196e-08
5.63071e-08
-1.0555e-08
5.8932e-08
-6.20648e-09
6.04125e-08
-2.01856e-09
6.07965e-08
1.96835e-09
6.01428e-08
5.71741e-09
5.85206e-08
9.19441e-09
5.6009e-08
1.23664e-08
5.26971e-08
1.52003e-08
4.86836e-08
1.76605e-08
4.40781e-08
1.97068e-08
3.90015e-08
2.12925e-08
3.35878e-08
2.23617e-08
2.79851e-08
2.28486e-08
2.23577e-08
2.2676e-08
1.68874e-08
2.17579e-08
1.17762e-08
2.00032e-08
7.25002e-09
1.73245e-08
3.5651e-09
1.36517e-08
1.02234e-09
8.95009e-09
3.25769e-09
-7.38959e-10
1.39086e-09
-2.87688e-09
5.5407e-09
-6.32212e-09
1.02963e-08
-1.09687e-08
1.51704e-08
-1.66988e-08
1.98482e-08
-2.33879e-08
2.41307e-08
-3.09098e-08
2.79106e-08
-3.91422e-08
3.11501e-08
-4.79706e-08
3.38586e-08
-5.72911e-08
3.60763e-08
-6.70121e-08
3.78606e-08
-7.7055e-08
3.92765e-08
-8.73537e-08
4.03888e-08
-9.78534e-08
4.12579e-08
-1.08509e-07
4.19364e-08
-1.19285e-07
4.24679e-08
-1.30151e-07
4.28863e-08
-1.4108e-07
4.32161e-08
-1.52052e-07
4.34737e-08
-1.63046e-07
4.3668e-08
-1.74041e-07
4.38019e-08
-1.85017e-07
4.38735e-08
-1.95955e-07
4.38773e-08
-2.06831e-07
4.38052e-08
-2.17621e-07
4.36472e-08
-2.28301e-07
4.33923e-08
-2.38842e-07
4.30289e-08
-2.49216e-07
4.25453e-08
-2.59391e-07
4.19296e-08
-2.69334e-07
4.11698e-08
-2.79012e-07
4.02542e-08
-2.88387e-07
3.91711e-08
-2.9742e-07
3.79087e-08
-3.06072e-07
3.64553e-08
-3.14299e-07
3.47991e-08
-3.22057e-07
3.29285e-08
-3.29299e-07
3.0832e-08
-3.35975e-07
2.84987e-08
-3.42034e-07
2.59187e-08
-3.47423e-07
2.30832e-08
-3.52086e-07
1.99852e-08
-3.55967e-07
1.66204e-08
-3.5901e-07
1.2987e-08
-3.61159e-07
9.08732e-09
-3.62356e-07
4.92762e-09
-3.6255e-07
5.19649e-10
-3.61688e-07
-4.1218e-09
-3.59726e-07
-8.97295e-09
-3.56622e-07
-1.40061e-08
-3.52343e-07
-1.91871e-08
-3.46864e-07
-2.44753e-08
-3.40167e-07
-2.98245e-08
-3.32249e-07
-3.51831e-08
-3.23115e-07
-4.04942e-08
-3.12784e-07
-4.56972e-08
-3.0129e-07
-5.07282e-08
-2.88679e-07
-5.55214e-08
-2.75012e-07
-6.00103e-08
-2.60365e-07
-6.4129e-08
-2.44828e-07
-6.78141e-08
-2.28504e-07
-7.10056e-08
-2.11508e-07
-7.3649e-08
-1.93969e-07
-7.56967e-08
-1.76024e-07
-7.71091e-08
-1.57817e-07
-7.7856e-08
-1.39501e-07
-7.79176e-08
-1.2123e-07
-7.72853e-08
-1.03161e-07
-7.59622e-08
-8.54485e-08
-7.39632e-08
-6.82433e-08
-7.13146e-08
-5.16899e-08
-6.80541e-08
-3.59239e-08
-6.42293e-08
-2.10695e-08
-5.98968e-08
-7.23804e-09
-5.51211e-08
5.47405e-09
-4.99721e-08
1.69863e-08
-4.45242e-08
2.72353e-08
-3.88539e-08
3.61748e-08
-3.30383e-08
4.37762e-08
-2.71532e-08
5.00281e-08
-2.12715e-08
5.49358e-08
-1.54627e-08
5.85204e-08
-9.79112e-09
6.0818e-08
-4.31616e-09
6.18785e-08
9.07888e-10
6.17646e-08
5.8313e-09
6.05512e-08
1.04079e-08
5.83243e-08
1.45933e-08
5.51813e-08
1.83433e-08
5.12303e-08
2.16114e-08
4.6591e-08
2.43461e-08
4.13954e-08
2.64881e-08
3.57887e-08
2.79685e-08
2.99313e-08
2.8706e-08
2.40005e-08
2.86068e-08
1.81934e-08
2.7565e-08
1.27303e-08
2.54663e-08
7.86058e-09
2.21942e-08
3.87275e-09
1.76395e-08
1.10989e-09
1.1713e-08
4.36757e-09
-9.4084e-10
2.33169e-09
-3.59219e-09
8.19205e-09
-7.78605e-09
1.44902e-08
-1.33555e-08
2.07399e-08
-2.01358e-08
2.66286e-08
-2.79674e-08
3.19623e-08
-3.6699e-08
3.66422e-08
-4.61901e-08
4.06412e-08
-5.63132e-08
4.39818e-08
-6.69556e-08
4.67186e-08
-7.80189e-08
4.89239e-08
-8.94195e-08
5.06771e-08
-1.01087e-07
5.20565e-08
-1.12964e-07
5.31345e-08
-1.25001e-07
5.39739e-08
-1.3716e-07
5.46264e-08
-1.49406e-07
5.51323e-08
-1.61711e-07
5.5521e-08
-1.74049e-07
5.58116e-08
-1.86396e-07
5.60149e-08
-1.98728e-07
5.61345e-08
-2.11023e-07
5.61684e-08
-2.23256e-07
5.61103e-08
-2.35402e-07
5.59511e-08
-2.47434e-07
5.56796e-08
-2.59325e-07
5.52834e-08
-2.71046e-07
5.47497e-08
-2.82566e-07
5.40651e-08
-2.93853e-07
5.32165e-08
-3.04874e-07
5.21905e-08
-3.15593e-07
5.0974e-08
-3.25976e-07
4.95535e-08
-3.35983e-07
4.79157e-08
-3.45574e-07
4.60467e-08
-3.54708e-07
4.39326e-08
-3.63338e-07
4.15593e-08
-3.71419e-07
3.89129e-08
-3.78901e-07
3.59798e-08
-3.85729e-07
3.27472e-08
-3.9185e-07
2.92038e-08
-3.97205e-07
2.53404e-08
-4.01735e-07
2.11503e-08
-4.05379e-07
1.66308e-08
-4.08074e-07
1.17832e-08
-4.09761e-07
6.61411e-09
-4.10378e-07
1.13639e-09
-4.09867e-07
-4.63209e-09
-4.08176e-07
-1.06644e-08
-4.05254e-07
-1.69275e-08
-4.01061e-07
-2.33803e-08
-3.95562e-07
-2.99743e-08
-3.88733e-07
-3.66536e-08
-3.80561e-07
-4.33554e-08
-3.71044e-07
-5.00106e-08
-3.60197e-07
-5.6545e-08
-3.48045e-07
-6.28801e-08
-3.34631e-07
-6.89347e-08
-3.20015e-07
-7.46264e-08
-3.04271e-07
-7.98732e-08
-2.8749e-07
-8.45954e-08
-2.69778e-07
-8.87176e-08
-2.51256e-07
-9.21704e-08
-2.32061e-07
-9.48923e-08
-2.12338e-07
-9.68317e-08
-1.92246e-07
-9.7948e-08
-1.7195e-07
-9.82135e-08
-1.51621e-07
-9.76141e-08
-1.31434e-07
-9.61499e-08
-1.11561e-07
-9.3836e-08
-9.21738e-08
-9.07018e-08
-7.34369e-08
-8.6791e-08
-5.55062e-08
-8.216e-08
-3.85259e-08
-7.68771e-08
-2.26264e-08
-7.10205e-08
-7.92208e-09
-6.46764e-08
5.49042e-09
-5.79367e-08
1.75332e-08
-5.08967e-08
2.81479e-08
-4.3653e-08
3.72959e-08
-3.63012e-08
4.49585e-08
-2.89341e-08
5.11357e-08
-2.16399e-08
5.5846e-08
-1.45014e-08
5.91251e-08
-7.59521e-09
6.10244e-08
-9.91466e-10
6.16105e-08
5.24526e-09
6.09633e-08
1.1055e-08
5.91757e-08
1.63808e-08
5.6353e-08
2.11661e-08
5.26121e-08
2.53523e-08
4.80824e-08
2.88757e-08
4.29061e-08
3.16644e-08
3.72395e-08
3.36351e-08
3.12544e-08
3.4691e-08
2.51413e-08
3.47199e-08
1.91117e-08
3.35946e-08
1.3404e-08
3.1174e-08
8.29004e-09
2.73082e-08
4.08609e-09
2.18435e-08
1.16865e-09
1.46304e-08
5.53623e-09
-1.13831e-09
3.46999e-09
-4.29703e-09
1.13508e-08
-9.2345e-09
1.94277e-08
-1.57231e-08
2.72284e-08
-2.35499e-08
3.44554e-08
-3.25189e-08
4.09312e-08
-4.24512e-08
4.65746e-08
-5.31871e-08
5.1377e-08
-6.45851e-08
5.53799e-08
-7.65229e-08
5.86563e-08
-8.88954e-08
6.12965e-08
-1.01614e-07
6.3396e-08
-1.14606e-07
6.50479e-08
-1.27808e-07
6.63371e-08
-1.41171e-07
6.73368e-08
-1.54652e-07
6.81072e-08
-1.68214e-07
6.86947e-08
-1.81827e-07
6.91334e-08
-1.9546e-07
6.94453e-08
-2.09088e-07
6.96429e-08
-2.22684e-07
6.97306e-08
-2.36223e-07
6.97065e-08
-2.49676e-07
6.9564e-08
-2.63019e-07
6.92933e-08
-2.76221e-07
6.88825e-08
-2.89256e-07
6.83184e-08
-3.02094e-07
6.75873e-08
-3.14704e-07
6.66753e-08
-3.27056e-07
6.55683e-08
-3.39118e-07
6.42522e-08
-3.50856e-07
6.27128e-08
-3.62238e-07
6.09353e-08
-3.73227e-07
5.89046e-08
-3.83786e-07
5.66052e-08
-3.93874e-07
5.40204e-08
-4.03448e-07
5.11336e-08
-4.12462e-07
4.79275e-08
-4.20868e-07
4.4385e-08
-4.2861e-07
4.04899e-08
-4.35633e-07
3.6227e-08
-4.41877e-07
3.15836e-08
-4.47276e-07
2.655e-08
-4.51766e-07
2.11206e-08
-4.55278e-07
1.52949e-08
-4.57742e-07
9.07858e-09
-4.5909e-07
2.4844e-09
-4.59254e-07
-4.46781e-09
-4.5817e-07
-1.17489e-08
-4.55776e-07
-1.9321e-08
-4.5202e-07
-2.7137e-08
-4.46854e-07
-3.51405e-08
-4.40241e-07
-4.3266e-08
-4.32157e-07
-5.14394e-08
-4.22589e-07
-5.95789e-08
-4.11538e-07
-6.75955e-08
-3.99023e-07
-7.53952e-08
-3.85078e-07
-8.28797e-08
-3.69756e-07
-8.99489e-08
-3.53127e-07
-9.65026e-08
-3.3528e-07
-1.02442e-07
-3.16322e-07
-1.07675e-07
-2.96381e-07
-1.12112e-07
-2.75596e-07
-1.15677e-07
-2.54125e-07
-1.18303e-07
-2.32138e-07
-1.19935e-07
-2.09816e-07
-1.20535e-07
-1.87348e-07
-1.20082e-07
-1.64928e-07
-1.1857e-07
-1.42752e-07
-1.16012e-07
-1.21014e-07
-1.1244e-07
-9.99025e-08
-1.07903e-07
-7.95974e-08
-1.02465e-07
-6.02673e-08
-9.62072e-08
-4.20656e-08
-8.92223e-08
-2.51283e-08
-8.16137e-08
-9.57205e-09
-7.3493e-08
4.50772e-09
-6.49765e-08
1.70377e-08
-5.61829e-08
2.7967e-08
-4.72305e-08
3.72674e-08
-3.82345e-08
4.49328e-08
-2.93053e-08
5.09779e-08
-2.05466e-08
5.54375e-08
-1.20548e-08
5.83647e-08
-3.9186e-09
5.98294e-08
3.78053e-09
5.99174e-08
1.09671e-08
5.87286e-08
1.75696e-08
5.63764e-08
2.35182e-08
5.29874e-08
2.87414e-08
4.87008e-08
3.31624e-08
4.36695e-08
3.66957e-08
3.8061e-08
3.92436e-08
3.20594e-08
4.06926e-08
2.58681e-08
4.09112e-08
1.97141e-08
3.97487e-08
1.38529e-08
3.70352e-08
8.57735e-09
3.25837e-08
4.22772e-09
2.61931e-08
1.20666e-09
1.76514e-08
6.74288e-09
-1.33107e-09
4.80107e-09
-4.98797e-09
1.50077e-08
-1.06581e-08
2.50978e-08
-1.80542e-08
3.46244e-08
-2.69151e-08
4.33164e-08
-3.70072e-08
5.10233e-08
-4.81237e-08
5.76911e-08
-6.00839e-08
6.33372e-08
-7.27322e-08
6.80281e-08
-8.59357e-08
7.18599e-08
-9.95828e-08
7.49436e-08
-1.1358e-07
7.73934e-08
-1.27851e-07
7.93183e-08
-1.4233e-07
8.08166e-08
-1.56966e-07
8.19722e-08
-1.71712e-07
8.28538e-08
-1.86532e-07
8.35141e-08
-2.0139e-07
8.39915e-08
-2.16256e-07
8.43113e-08
-2.311e-07
8.44876e-08
-2.45896e-07
8.45258e-08
-2.60613e-07
8.44244e-08
-2.75226e-07
8.4177e-08
-2.89707e-07
8.37737e-08
-3.04027e-07
8.32025e-08
-3.18159e-07
8.24503e-08
-3.32075e-07
8.15035e-08
-3.45748e-07
8.03481e-08
-3.5915e-07
7.897e-08
-3.72252e-07
7.73549e-08
-3.85027e-07
7.54878e-08
-3.97445e-07
7.33531e-08
-4.09475e-07
7.09342e-08
-4.21083e-07
6.8213e-08
-4.32232e-07
6.51703e-08
-4.42885e-07
6.17858e-08
-4.52995e-07
5.80381e-08
-4.62516e-07
5.39056e-08
-4.71393e-07
4.93668e-08
-4.79567e-07
4.44016e-08
-4.86976e-07
3.89919e-08
-4.93549e-07
3.31233e-08
-4.99214e-07
2.67856e-08
-5.03894e-07
1.99747e-08
-5.07509e-07
1.26935e-08
-5.09978e-07
4.95323e-09
-5.1122e-07
-3.22574e-09
-5.11155e-07
-1.18139e-08
-5.09707e-07
-2.0769e-08
-5.06805e-07
-3.00389e-08
-5.02386e-07
-3.95599e-08
-4.96394e-07
-4.92571e-08
-4.88789e-07
-5.9045e-08
-4.7954e-07
-6.88281e-08
-4.68633e-07
-7.85021e-08
-4.56072e-07
-8.79558e-08
-4.4188e-07
-9.70722e-08
-4.26098e-07
-1.05731e-07
-4.08789e-07
-1.13811e-07
-3.90039e-07
-1.21193e-07
-3.69953e-07
-1.27761e-07
-3.48659e-07
-1.33406e-07
-3.26306e-07
-1.38031e-07
-3.03059e-07
-1.41549e-07
-2.79103e-07
-1.43891e-07
-2.54635e-07
-1.45003e-07
-2.29866e-07
-1.44851e-07
-2.05012e-07
-1.43423e-07
-1.80295e-07
-1.40729e-07
-1.55938e-07
-1.36798e-07
-1.32157e-07
-1.31683e-07
-1.09163e-07
-1.25459e-07
-8.71534e-08
-1.18217e-07
-6.63102e-08
-1.10066e-07
-4.67963e-08
-1.01128e-07
-2.87532e-08
-9.1536e-08
-1.22985e-08
-8.14312e-08
2.47569e-09
-7.09571e-08
1.55031e-08
-6.02579e-08
2.67434e-08
-4.94749e-08
3.61822e-08
-3.87441e-08
4.38295e-08
-2.81939e-08
4.97183e-08
-1.79436e-08
5.39033e-08
-8.10356e-09
5.64585e-08
1.22534e-09
5.74758e-08
9.94979e-09
5.70632e-08
1.79822e-08
5.53436e-08
2.52378e-08
5.2454e-08
3.1631e-08
4.8545e-08
3.70714e-08
4.37813e-08
4.14594e-08
3.8343e-08
4.46819e-08
3.24274e-08
4.66082e-08
2.62521e-08
4.70865e-08
2.00595e-08
4.59412e-08
1.4123e-08
4.29717e-08
8.75457e-09
3.79522e-08
4.31564e-09
3.0632e-08
1.22987e-09
2.07372e-08
7.97275e-09
-1.5191e-09
6.32018e-09
-5.66327e-09
1.91518e-08
-1.20514e-08
3.1486e-08
-2.03379e-08
4.29109e-08
-3.02141e-08
5.31926e-08
-4.14087e-08
6.22179e-08
-5.36863e-08
6.99686e-08
-6.68452e-08
7.64961e-08
-8.07146e-08
8.18975e-08
-9.51514e-08
8.62967e-08
-1.10037e-07
8.9829e-08
-1.25273e-07
9.26293e-08
-1.40779e-07
9.48242e-08
-1.56488e-07
9.65261e-08
-1.72346e-07
9.78303e-08
-1.88306e-07
9.88139e-08
-2.04328e-07
9.95363e-08
-2.20377e-07
1.0004e-07
-2.36419e-07
1.00354e-07
-2.52426e-07
1.00494e-07
-2.68366e-07
1.00466e-07
-2.84212e-07
1.00271e-07
-2.99938e-07
9.99023e-08
-3.15515e-07
9.93512e-08
-3.30919e-07
9.86065e-08
-3.46125e-07
9.7656e-08
-3.61108e-07
9.64871e-08
-3.75847e-07
9.50868e-08
-3.90319e-07
9.34418e-08
-4.04502e-07
9.15381e-08
-4.18375e-07
8.93607e-08
-4.31915e-07
8.6893e-08
-4.45097e-07
8.41167e-08
-4.57896e-07
8.10111e-08
-4.70279e-07
7.75533e-08
-4.82211e-07
7.37184e-08
-4.93653e-07
6.94795e-08
-5.04556e-07
6.48086e-08
-5.14866e-07
5.96775e-08
-5.24524e-07
5.40587e-08
-5.33458e-07
4.79268e-08
-5.41595e-07
4.126e-08
-5.48851e-07
3.40415e-08
-5.55137e-07
2.62611e-08
-5.60361e-07
1.79168e-08
-5.64424e-07
9.01613e-09
-5.67228e-07
-4.21026e-10
-5.68674e-07
-1.03686e-08
-5.68663e-07
-2.07794e-08
-5.67104e-07
-3.15981e-08
-5.6391e-07
-4.27544e-08
-5.59002e-07
-5.41643e-08
-5.52317e-07
-6.57304e-08
-5.43802e-07
-7.73431e-08
-5.33422e-07
-8.88818e-08
-5.21162e-07
-1.00216e-07
-5.07026e-07
-1.11208e-07
-4.91043e-07
-1.21715e-07
-4.73263e-07
-1.31591e-07
-4.53764e-07
-1.40691e-07
-4.32649e-07
-1.48875e-07
-4.10047e-07
-1.56009e-07
-3.86109e-07
-1.61968e-07
-3.61013e-07
-1.66645e-07
-3.34958e-07
-1.69946e-07
-3.08161e-07
-1.718e-07
-2.80854e-07
-1.72158e-07
-2.53282e-07
-1.70995e-07
-2.25698e-07
-1.68312e-07
-1.98358e-07
-1.64138e-07
-1.71513e-07
-1.58528e-07
-1.4541e-07
-1.51562e-07
-1.20283e-07
-1.43344e-07
-9.6349e-08
-1.33999e-07
-7.38056e-08
-1.23671e-07
-5.28249e-08
-1.12517e-07
-3.35525e-08
-1.00704e-07
-1.61049e-08
-8.84047e-08
-5.68303e-10
-7.57945e-08
1.30017e-08
-6.30449e-08
2.45794e-08
-5.03218e-08
3.41681e-08
-3.77826e-08
4.17984e-08
-2.5574e-08
4.75262e-08
-1.38313e-08
5.14298e-08
-2.67834e-09
5.36086e-08
7.77103e-09
5.418e-08
1.74109e-08
5.3278e-08
2.61398e-08
5.1052e-08
3.3857e-08
4.76659e-08
4.04574e-08
4.32984e-08
4.58268e-08
3.81441e-08
4.98363e-08
3.24151e-08
5.23372e-08
2.63449e-08
5.31567e-08
2.01927e-08
5.20934e-08
1.42495e-08
4.89149e-08
8.84614e-09
4.33555e-08
4.36332e-09
3.51149e-08
1.24257e-09
2.3858e-08
9.21532e-09
-1.70242e-09
8.0226e-09
-6.32197e-09
2.37714e-08
-1.34111e-08
3.85751e-08
-2.25674e-08
5.20672e-08
-3.34355e-08
6.40607e-08
-4.57068e-08
7.44893e-08
-5.91177e-08
8.33795e-08
-7.34451e-08
9.08236e-08
-8.85032e-08
9.69556e-08
-1.04138e-07
1.01932e-07
-1.20224e-07
1.05915e-07
-1.36658e-07
1.09064e-07
-1.53357e-07
1.11523e-07
-1.70252e-07
1.13421e-07
-1.87286e-07
1.14864e-07
-2.04412e-07
1.1594e-07
-2.21588e-07
1.16713e-07
-2.38779e-07
1.17231e-07
-2.5595e-07
1.17525e-07
-2.73072e-07
1.17615e-07
-2.90115e-07
1.1751e-07
-3.07054e-07
1.17209e-07
-3.23861e-07
1.1671e-07
-3.40514e-07
1.16004e-07
-3.5699e-07
1.15083e-07
-3.73272e-07
1.13938e-07
-3.89341e-07
1.12556e-07
-4.05183e-07
1.10928e-07
-4.20783e-07
1.09042e-07
-4.36129e-07
1.06884e-07
-4.51209e-07
1.04441e-07
-4.66009e-07
1.01693e-07
-4.80514e-07
9.8622e-08
-4.94706e-07
9.52026e-08
-5.0856e-07
9.14074e-08
-5.22046e-07
8.72051e-08
-5.35128e-07
8.25614e-08
-5.4776e-07
7.744e-08
-5.59885e-07
7.1803e-08
-5.7144e-07
6.56131e-08
-5.82348e-07
5.88348e-08
-5.92524e-07
5.1436e-08
-6.01872e-07
4.33902e-08
-6.1029e-07
3.46785e-08
-6.17664e-07
2.52912e-08
-6.23877e-07
1.52296e-08
-6.28807e-07
4.50858e-09
-6.32331e-07
-6.84499e-09
-6.34322e-07
-1.8788e-08
-6.34661e-07
-3.12593e-08
-6.33232e-07
-4.41837e-08
-6.29928e-07
-5.74679e-08
-6.24655e-07
-7.1003e-08
-6.17334e-07
-8.46643e-08
-6.07903e-07
-9.83132e-08
-5.9632e-07
-1.11799e-07
-5.82569e-07
-1.24959e-07
-5.66659e-07
-1.37625e-07
-5.48625e-07
-1.49624e-07
-5.28535e-07
-1.60782e-07
-5.06483e-07
-1.70927e-07
-4.82598e-07
-1.79894e-07
-4.57037e-07
-1.8753e-07
-4.29986e-07
-1.93696e-07
-4.01659e-07
-1.98273e-07
-3.72295e-07
-2.01164e-07
-3.42154e-07
-2.023e-07
-3.1151e-07
-2.01638e-07
-2.80653e-07
-1.99169e-07
-2.49878e-07
-1.94914e-07
-2.19479e-07
-1.88927e-07
-1.89746e-07
-1.81295e-07
-1.60957e-07
-1.72133e-07
-1.33374e-07
-1.61582e-07
-1.07236e-07
-1.49809e-07
-8.27539e-08
-1.36998e-07
-6.01098e-08
-1.23348e-07
-3.94508e-08
-1.09064e-07
-2.08891e-08
-9.43561e-08
-4.50107e-09
-7.94329e-08
9.6729e-09
-6.44957e-08
2.16267e-08
-4.97364e-08
3.13868e-08