/*--------------------------------*- C++ -*----------------------------------*\
  =========                 |
  \\      /  F ield         | OpenFOAM: The Open Source CFD Toolbox
   \\    /   O peration     | Website:  https://openfoam.org
    \\  /    A nd           | Version:  9
     \\/     M anipulation  |
\*---------------------------------------------------------------------------*/
FoamFile
{
    format      ascii;
    class       volVectorField;
    location    "1";
    object      U;
}
// * * * * * * * * * * * * * * * * * * * * * * * * * * * * * * * * * * * * * //

dimensions      [0 1 -1 0 0 0 0];

internalField   nonuniform List<vector> 
10000
(
(7.14597e-06 -7.20209e-06 0)
(2.30662e-05 -9.43831e-06 0)
(3.44499e-05 -5.714e-06 0)
(3.11649e-05 -8.70415e-08 0)
(1.06365e-05 5.45175e-06 0)
(-2.60412e-05 1.03025e-05 0)
(-7.68294e-05 1.42762e-05 0)
(-0.000139269 1.73531e-05 0)
(-0.000211002 1.9642e-05 0)
(-0.000289904 2.12878e-05 0)
(-0.000374195 2.24351e-05 0)
(-0.000462454 2.3215e-05 0)
(-0.000553602 2.37396e-05 0)
(-0.000646858 2.41008e-05 0)
(-0.000741693 2.43699e-05 0)
(-0.000837773 2.46003e-05 0)
(-0.000934917 2.48294e-05 0)
(-0.00103305 2.50807e-05 0)
(-0.00113215 2.53668e-05 0)
(-0.00123226 2.56912e-05 0)
(-0.00133339 2.60506e-05 0)
(-0.00143558 2.6437e-05 0)
(-0.00153883 2.68394e-05 0)
(-0.00164308 2.72442e-05 0)
(-0.00174826 2.76365e-05 0)
(-0.00185425 2.80008e-05 0)
(-0.00196085 2.83213e-05 0)
(-0.00206784 2.85822e-05 0)
(-0.00217494 2.87675e-05 0)
(-0.0022818 2.88615e-05 0)
(-0.00238806 2.88484e-05 0)
(-0.00249326 2.87119e-05 0)
(-0.00259691 2.84356e-05 0)
(-0.00269849 2.80028e-05 0)
(-0.00279738 2.73964e-05 0)
(-0.00289295 2.65987e-05 0)
(-0.0029845 2.55919e-05 0)
(-0.00307126 2.43585e-05 0)
(-0.00315244 2.28812e-05 0)
(-0.00322719 2.11435e-05 0)
(-0.00329461 1.91306e-05 0)
(-0.00335378 1.68297e-05 0)
(-0.00340375 1.4231e-05 0)
(-0.00344353 1.13282e-05 0)
(-0.00347217 8.12004e-06 0)
(-0.0034887 4.61065e-06 0)
(-0.0034922 8.09958e-07 0)
(-0.00348181 -3.26661e-06 0)
(-0.00345673 -7.59345e-06 0)
(-0.00341627 -1.2138e-05 0)
(-0.00335987 -1.68596e-05 0)
(-0.0032871 -2.17096e-05 0)
(-0.00319773 -2.66312e-05 0)
(-0.00309172 -3.15606e-05 0)
(-0.00296923 -3.64274e-05 0)
(-0.00283066 -4.11564e-05 0)
(-0.00267666 -4.5669e-05 0)
(-0.00250811 -4.98849e-05 0)
(-0.00232617 -5.37244e-05 0)
(-0.00213222 -5.71108e-05 0)
(-0.00192787 -5.99725e-05 0)
(-0.00171494 -6.22454e-05 0)
(-0.00149544 -6.38755e-05 0)
(-0.00127154 -6.48202e-05 0)
(-0.00104549 -6.50509e-05 0)
(-0.000819634 -6.45536e-05 0)
(-0.000596332 -6.33296e-05 0)
(-0.00037792 -6.13963e-05 0)
(-0.000166661 -5.87866e-05 0)
(3.52965e-05 -5.55492e-05 0)
(0.000225963 -5.17418e-05 0)
(0.000403547 -4.74356e-05 0)
(0.000566485 -4.27114e-05 0)
(0.000713466 -3.76549e-05 0)
(0.000843444 -3.23544e-05 0)
(0.000955654 -2.68989e-05 0)
(0.00104961 -2.13755e-05 0)
(0.00112508 -1.58659e-05 0)
(0.00118211 -1.04456e-05 0)
(0.00122096 -5.18104e-06 0)
(0.00124212 -1.29408e-07 0)
(0.00124626 4.66238e-06 0)
(0.00123419 9.15966e-06 0)
(0.00120686 1.3334e-05 0)
(0.00116533 1.71665e-05 0)
(0.00111073 2.06446e-05 0)
(0.00104428 2.37586e-05 0)
(0.000967245 2.64984e-05 0)
(0.000880994 2.88481e-05 0)
(0.000786994 3.07787e-05 0)
(0.000686871 3.22405e-05 0)
(0.000582477 3.31505e-05 0)
(0.000475997 3.33748e-05 0)
(0.000370087 3.27063e-05 0)
(0.000268064 3.08329e-05 0)
(0.000174137 2.73105e-05 0)
(9.35659e-05 2.15855e-05 0)
(3.24239e-05 1.31535e-05 0)
(-2.84325e-06 2.26342e-06 0)
(-6.59512e-06 -6.57734e-06 0)
(9.5435e-06 -2.31832e-05 0)
(2.41525e-05 -2.39572e-05 0)
(1.92633e-05 -2.41799e-06 0)
(-2.03261e-05 2.73401e-05 0)
(-9.93936e-05 5.8251e-05 0)
(-0.000216609 8.67013e-05 0)
(-0.000368532 0.000111189 0)
(-0.000550285 0.000131292 0)
(-0.000756701 0.000147225 0)
(-0.000982902 0.000159501 0)
(-0.00122459 0.000168746 0)
(-0.00147817 0.000175597 0)
(-0.00174079 0.000180644 0)
(-0.00201025 0.0001844 0)
(-0.00228495 0.000187288 0)
(-0.00256379 0.000189639 0)
(-0.00284602 0.000191699 0)
(-0.00313119 0.000193635 0)
(-0.00341904 0.000195547 0)
(-0.0037094 0.00019748 0)
(-0.00400215 0.000199437 0)
(-0.00429717 0.000201385 0)
(-0.00459427 0.000203267 0)
(-0.00489319 0.000205011 0)
(-0.00519357 0.000206531 0)
(-0.00549494 0.000207734 0)
(-0.00579671 0.000208525 0)
(-0.00609814 0.000208806 0)
(-0.00639839 0.000208478 0)
(-0.00669648 0.000207443 0)
(-0.0069913 0.000205602 0)
(-0.00728161 0.000202857 0)
(-0.00756604 0.000199108 0)
(-0.00784312 0.000194257 0)
(-0.00811121 0.000188202 0)
(-0.00836857 0.000180845 0)
(-0.00861335 0.000172087 0)
(-0.00884356 0.000161832 0)
(-0.00905709 0.00014999 0)
(-0.00925176 0.000136478 0)
(-0.00942529 0.000121226 0)
(-0.00957532 0.000104177 0)
(-0.00969946 8.52966e-05 0)
(-0.00979529 6.4572e-05 0)
(-0.00986044 4.2021e-05 0)
(-0.00989258 1.76933e-05 0)
(-0.00988949 -8.32885e-06 0)
(-0.00984912 -3.59104e-05 0)
(-0.00976962 -6.48798e-05 0)
(-0.00964941 -9.50198e-05 0)
(-0.00948727 -0.000126066 0)
(-0.00928233 -0.000157709 0)
(-0.00903417 -0.000189596 0)
(-0.00874287 -0.000221337 0)
(-0.00840902 -0.000252506 0)
(-0.00803382 -0.000282655 0)
(-0.00761901 -0.000311318 0)
(-0.00716697 -0.000338026 0)
(-0.00668065 -0.000362313 0)
(-0.00616361 -0.000383733 0)
(-0.00561995 -0.000401874 0)
(-0.00505425 -0.000416364 0)
(-0.00447156 -0.000426891 0)
(-0.00387725 -0.000433208 0)
(-0.00327701 -0.000435143 0)
(-0.00267666 -0.00043261 0)
(-0.0020821 -0.000425607 0)
(-0.00149918 -0.000414223 0)
(-0.000933605 -0.000398633 0)
(-0.000390812 -0.000379096 0)
(0.000124123 -0.000355945 0)
(0.000606576 -0.000329572 0)
(0.00105246 -0.000300432 0)
(0.00145826 -0.000269016 0)
(0.00182114 -0.000235837 0)
(0.00213888 -0.000201417 0)
(0.00240996 -0.000166275 0)
(0.00263352 -0.00013091 0)
(0.00280933 -9.57891e-05 0)
(0.00293779 -6.13413e-05 0)
(0.00301981 -2.7947e-05 0)
(0.00305683 4.06366e-06 0)
(0.00305072 3.44147e-05 0)
(0.00300371 6.28733e-05 0)
(0.00291838 8.92484e-05 0)
(0.0027976 0.000113378 0)
(0.00264448 0.000135112 0)
(0.00246241 0.000154292 0)
(0.00225508 0.00017072 0)
(0.00202654 0.000184133 0)
(0.00178126 0.000194154 0)
(0.00152437 0.000200249 0)
(0.00126175 0.000201672 0)
(0.00100035 0.000197401 0)
(0.000748353 0.000186098 0)
(0.000515468 0.000166136 0)
(0.000312729 0.000135877 0)
(0.00015157 9.44019e-05 0)
(4.35821e-05 4.36474e-05 0)
(2.18461e-06 -2.88504e-06 0)
(6.0782e-06 -3.5077e-05 0)
(2.42718e-06 -1.9009e-05 0)
(-4.10733e-05 3.96874e-05 0)
(-0.000136572 0.000115508 0)
(-0.000288362 0.000194605 0)
(-0.000494982 0.000268719 0)
(-0.000751798 0.000333867 0)
(-0.00105244 0.000388641 0)
(-0.00139 0.000433155 0)
(-0.00175778 0.000468358 0)
(-0.00214973 0.000495602 0)
(-0.00256066 0.000516363 0)
(-0.00298633 0.00053207 0)
(-0.00342338 0.000544007 0)
(-0.00386924 0.000553264 0)
(-0.00432205 0.000560711 0)
(-0.00478047 0.000567009 0)
(-0.00524358 0.000572623 0)
(-0.00571072 0.000577845 0)
(-0.00618141 0.000582819 0)
(-0.00665525 0.000587575 0)
(-0.00713182 0.000592047 0)
(-0.00761065 0.000596102 0)
(-0.00809115 0.000599555 0)
(-0.00857262 0.00060219 0)
(-0.00905417 0.000603767 0)
(-0.00953477 0.000604035 0)
(-0.0100132 0.000602736 0)
(-0.010488 0.000599611 0)
(-0.0109576 0.0005944 0)
(-0.0114203 0.000586843 0)
(-0.0118742 0.000576684 0)
(-0.0123169 0.000563663 0)
(-0.0127464 0.000547526 0)
(-0.0131601 0.000528016 0)
(-0.0135553 0.000504883 0)
(-0.0139292 0.00047788 0)
(-0.014279 0.000446775 0)
(-0.0146014 0.00041135 0)
(-0.0148933 0.00037141 0)
(-0.0151512 0.000326797 0)
(-0.0153718 0.000277393 0)
(-0.0155516 0.000223135 0)
(-0.0156871 0.000164027 0)
(-0.0157749 0.000100148 0)
(-0.0158117 3.16662e-05 0)
(-0.0157945 -4.11604e-05 0)
(-0.0157203 -0.000117947 0)
(-0.0155865 -0.000198211 0)
(-0.0153912 -0.000281351 0)
(-0.0151327 -0.000366649 0)
(-0.0148098 -0.000453271 0)
(-0.0144221 -0.000540279 0)
(-0.01397 -0.000626638 0)
(-0.0134545 -0.000711235 0)
(-0.0128774 -0.000792897 0)
(-0.0122415 -0.000870416 0)
(-0.0115502 -0.000942572 0)
(-0.010808 -0.00100817 0)
(-0.0100201 -0.00106605 0)
(-0.0091925 -0.00111517 0)
(-0.00833187 -0.00115455 0)
(-0.00744555 -0.00118341 0)
(-0.00654135 -0.00120108 0)
(-0.00562752 -0.00120714 0)
(-0.00471251 -0.00120133 0)
(-0.00380492 -0.00118364 0)
(-0.00291329 -0.00115428 0)
(-0.00204599 -0.00111366 0)
(-0.001211 -0.00106243 0)
(-0.000415868 -0.00100141 0)
(0.000332505 -0.000931615 0)
(0.00102792 -0.000854168 0)
(0.00166503 -0.000770331 0)
(0.00223935 -0.000681424 0)
(0.00274734 -0.000588799 0)
(0.00318641 -0.000493813 0)
(0.00355496 -0.000397785 0)
(0.00385229 -0.00030197 0)
(0.0040786 -0.00020753 0)
(0.00423493 -0.000115521 0)
(0.00432308 -2.68787e-05 0)
(0.00434555 5.75811e-05 0)
(0.00430544 0.000137155 0)
(0.00420641 0.000211234 0)
(0.00405262 0.000279274 0)
(0.00384868 0.000340758 0)
(0.00359969 0.000395141 0)
(0.00331124 0.000441787 0)
(0.00298951 0.000479894 0)
(0.00264136 0.000508403 0)
(0.00227455 0.000525911 0)
(0.00189788 0.000530573 0)
(0.00152146 0.000520042 0)
(0.00115689 0.000491477 0)
(0.000817369 0.000441776 0)
(0.000517336 0.000368265 0)
(0.000271133 0.000270154 0)
(9.46912e-05 0.00015168 0)
(1.30797e-05 3.2283e-05 0)
(3.06811e-07 -3.17878e-05 0)
(-3.00091e-05 2.27546e-05 0)
(-0.00012514 0.000136707 0)
(-0.000289714 0.000275225 0)
(-0.000525238 0.000417715 0)
(-0.000829108 0.000551656 0)
(-0.00119538 0.000670462 0)
(-0.00161638 0.000771539 0)
(-0.00208393 0.000854793 0)
(-0.00259003 0.0009216 0)
(-0.0031274 0.000974106 0)
(-0.00368968 0.00101475 0)
(-0.00427158 0.00104596 0)
(-0.00486879 0.00106995 0)
(-0.00547798 0.00108865 0)
(-0.00609659 0.00110359 0)
(-0.0067227 0.00111598 0)
(-0.0073549 0.00112666 0)
(-0.00799209 0.00113619 0)
(-0.00863341 0.00114485 0)
(-0.00927807 0.00115271 0)
(-0.00992529 0.00115968 0)
(-0.0105743 0.00116553 0)
(-0.011224 0.00116994 0)
(-0.0118734 0.00117253 0)
(-0.0125211 0.00117288 0)
(-0.0131656 0.00117055 0)
(-0.0138053 0.00116506 0)
(-0.0144382 0.00115596 0)
(-0.0150622 0.00114279 0)
(-0.0156748 0.00112508 0)
(-0.0162736 0.00110239 0)
(-0.0168559 0.00107425 0)
(-0.0174185 0.00104022 0)
(-0.0179584 0.000999846 0)
(-0.0184723 0.000952701 0)
(-0.0189565 0.000898359 0)
(-0.0194073 0.000836422 0)
(-0.0198209 0.000766525 0)
(-0.0201933 0.000688347 0)
(-0.0205202 0.000601634 0)
(-0.0207975 0.000506209 0)
(-0.0210209 0.000401998 0)
(-0.0211862 0.000289044 0)
(-0.0212892 0.000167534 0)
(-0.0213259 3.78118e-05 0)
(-0.0212927 -9.96037e-05 0)
(-0.021186 -0.000243997 0)
(-0.0210028 -0.000394456 0)
(-0.0207407 -0.000549863 0)
(-0.0203977 -0.000708896 0)
(-0.0199728 -0.000870031 0)
(-0.0194654 -0.00103156 0)
(-0.0188761 -0.00119162 0)
(-0.0182062 -0.0013482 0)
(-0.0174582 -0.0014992 0)
(-0.0166355 -0.00164244 0)
(-0.0157425 -0.00177576 0)
(-0.0147847 -0.00189702 0)
(-0.0137686 -0.00200417 0)
(-0.0127016 -0.0020953 0)
(-0.011592 -0.00216872 0)
(-0.0104489 -0.00222298 0)
(-0.00928182 -0.00225691 0)
(-0.00810108 -0.0022697 0)
(-0.00691716 -0.0022609 0)
(-0.00574074 -0.00223044 0)
(-0.0045825 -0.00217864 0)
(-0.00345292 -0.0021062 0)
(-0.00236208 -0.00201424 0)
(-0.00131953 -0.00190416 0)
(-0.00033412 -0.00177774 0)
(0.000586162 -0.00163695 0)
(0.00143429 -0.00148401 0)
(0.00220433 -0.00132126 0)
(0.00289146 -0.00115114 0)
(0.00349203 -0.000976083 0)
(0.00400357 -0.000798491 0)
(0.0044248 -0.000620664 0)
(0.00475556 -0.00044476 0)
(0.00499676 -0.000272764 0)
(0.00515031 -0.000106462 0)
(0.00521902 5.25566e-05 0)
(0.00520657 0.000202894 0)
(0.00511737 0.000343308 0)
(0.00495655 0.000472669 0)
(0.00472989 0.000589889 0)
(0.00444384 0.000693837 0)
(0.00410553 0.000783236 0)
(0.00372284 0.000856538 0)
(0.00330456 0.000911796 0)
(0.00286048 0.000946529 0)
(0.00240163 0.000957618 0)
(0.00194041 0.000941252 0)
(0.00149082 0.000893029 0)
(0.00106847 0.000808356 0)
(0.000690235 0.000683436 0)
(0.000372949 0.000517077 0)
(0.000137464 0.000313998 0)
(2.16637e-05 9.36908e-05 0)
(-6.09139e-06 -9.18396e-06 0)
(-6.71618e-05 0.000110098 0)
(-0.000221556 0.000298926 0)
(-0.000463519 0.00051576 0)
(-0.000790412 0.000734789 0)
(-0.00119753 0.000939933 0)
(-0.0016772 0.00112242 0)
(-0.00222033 0.00127864 0)
(-0.00281758 0.00140839 0)
(-0.00345992 0.0015135 0)
(-0.00413912 0.00159698 0)
(-0.00484794 0.0016623 0)
(-0.0055803 0.00171297 0)
(-0.00633118 0.00175223 0)
(-0.00709659 0.00178289 0)
(-0.00787339 0.00180728 0)
(-0.00865915 0.00182718 0)
(-0.00945196 0.00184389 0)
(-0.0102503 0.00185825 0)
(-0.0110529 0.00187071 0)
(-0.0118585 0.0018814 0)
(-0.0126659 0.00189019 0)
(-0.013474 0.00189677 0)
(-0.0142814 0.00190066 0)
(-0.0150864 0.0019013 0)
(-0.0158874 0.00189808 0)
(-0.0166825 0.00189033 0)
(-0.0174694 0.00187736 0)
(-0.0182459 0.0018585 0)
(-0.0190092 0.00183306 0)
(-0.0197565 0.00180036 0)
(-0.0204849 0.00175974 0)
(-0.021191 0.00171052 0)
(-0.0218714 0.00165205 0)
(-0.0225224 0.00158367 0)
(-0.0231402 0.00150476 0)
(-0.0237206 0.0014147 0)
(-0.0242594 0.00131291 0)
(-0.0247521 0.00119887 0)
(-0.0251941 0.00107213 0)
(-0.0255808 0.00093234 0)
(-0.0259073 0.000779261 0)
(-0.0261687 0.000612822 0)
(-0.0263603 0.00043313 0)
(-0.0264774 0.00024051 0)
(-0.0265154 3.55236e-05 0)
(-0.0264701 -0.000180996 0)
(-0.0263376 -0.000407935 0)
(-0.0261145 -0.000643871 0)
(-0.0257981 -0.00088708 0)
(-0.0253861 -0.00113553 0)
(-0.0248773 -0.00138689 0)
(-0.0242712 -0.00163856 0)
(-0.0235684 -0.00188771 0)
(-0.0227705 -0.00213129 0)
(-0.0218803 -0.00236612 0)
(-0.0209016 -0.00258893 0)
(-0.0198394 -0.00279643 0)
(-0.0187001 -0.0029854 0)
(-0.017491 -0.00315273 0)
(-0.0162206 -0.00329555 0)
(-0.0148983 -0.00341127 0)
(-0.0135346 -0.00349769 0)
(-0.0121405 -0.00355302 0)
(-0.0107278 -0.00357598 0)
(-0.00930869 -0.00356583 0)
(-0.00789551 -0.00352239 0)
(-0.00650073 -0.00344609 0)
(-0.00513661 -0.00333792 0)
(-0.00381508 -0.00319945 0)
(-0.00254744 -0.00303277 0)
(-0.00134427 -0.00284045 0)
(-0.000215226 -0.00262545 0)
(0.000831134 -0.00239106 0)
(0.00178744 -0.0021408 0)
(0.00264761 -0.00187836 0)
(0.0034069 -0.00160745 0)
(0.00406194 -0.00133174 0)
(0.00461074 -0.0010548 0)
(0.00505264 -0.000779997 0)
(0.00538825 -0.000510454 0)
(0.00561942 -0.000249028 0)
(0.00574911 1.71044e-06 0)
(0.00578132 0.00023946 0)
(0.005721 0.000462151 0)
(0.00557402 0.000667874 0)
(0.00534706 0.000854791 0)
(0.00504764 0.00102101 0)
(0.00468414 0.00116445 0)
(0.00426581 0.00128266 0)
(0.00380293 0.00137268 0)
(0.00330692 0.00143083 0)
(0.00279049 0.00145266 0)
(0.00226778 0.00143286 0)
(0.00175458 0.00136542 0)
(0.00126842 0.00124417 0)
(0.000828296 0.00106379 0)
(0.000453624 0.000821636 0)
(0.000170266 0.000520539 0)
(2.77314e-05 0.000175477 0)
(-1.2543e-05 3.38499e-05 0)
(-0.000105973 0.000246861 0)
(-0.000323514 0.000532089 0)
(-0.000647721 0.000843552 0)
(-0.0010708 0.00115191 0)
(-0.00158523 0.0014386 0)
(-0.00218111 0.00169335 0)
(-0.00284773 0.00191199 0)
(-0.00357451 0.00209441 0)
(-0.00435145 0.00224313 0)
(-0.00516952 0.00236209 0)
(-0.0060208 0.00245586 0)
(-0.00689857 0.00252911 0)
(-0.00779728 0.00258614 0)
(-0.00871241 0.00263074 0)
(-0.00964033 0.00266602 0)
(-0.0105781 0.00269441 0)
(-0.0115235 0.00271767 0)
(-0.0124745 0.00273695 0)
(-0.0134294 0.00275287 0)
(-0.0143865 0.00276564 0)
(-0.0153444 0.0027751 0)
(-0.0163013 0.00278082 0)
(-0.0172555 0.00278219 0)
(-0.018205 0.00277848 0)
(-0.0191478 0.00276884 0)
(-0.0200814 0.00275241 0)
(-0.0210033 0.00272828 0)
(-0.0219107 0.00269555 0)
(-0.0228008 0.00265332 0)
(-0.0236703 0.00260068 0)
(-0.0245158 0.00253676 0)
(-0.0253338 0.00246068 0)
(-0.0261203 0.00237156 0)
(-0.0268716 0.00226855 0)
(-0.0275832 0.0021508 0)
(-0.0282508 0.00201751 0)
(-0.0288698 0.0018679 0)
(-0.0294353 0.00170129 0)
(-0.0299423 0.00151708 0)
(-0.0303858 0.00131482 0)
(-0.0307604 0.0010942 0)
(-0.0310609 0.000855154 0)
(-0.0312821 0.000597855 0)
(-0.0314187 0.000322771 0)
(-0.0314658 3.0705e-05 0)
(-0.0314186 -0.000277164 0)
(-0.0312729 -0.000599287 0)
(-0.0310248 -0.00093369 0)
(-0.0306711 -0.00127798 0)
(-0.0302094 -0.00162934 0)
(-0.0296382 -0.00198455 0)
(-0.0289566 -0.00234005 0)
(-0.0281653 -0.00269191 0)
(-0.0272657 -0.00303595 0)
(-0.0262607 -0.0033678 0)
(-0.0251543 -0.00368294 0)
(-0.0239521 -0.00397685 0)
(-0.0226606 -0.00424508 0)
(-0.0212878 -0.00448334 0)
(-0.0198429 -0.00468764 0)
(-0.0183364 -0.00485439 0)
(-0.0167795 -0.00498048 0)
(-0.0151847 -0.00506339 0)
(-0.0135648 -0.00510126 0)
(-0.0119335 -0.00509296 0)
(-0.0103047 -0.00503816 0)
(-0.00869246 -0.00493729 0)
(-0.0071107 -0.00479162 0)
(-0.00557301 -0.00460318 0)
(-0.00409244 -0.00437474 0)
(-0.00268124 -0.00410972 0)
(-0.0013507 -0.00381214 0)
(-0.000110955 -0.00348647 0)
(0.00102918 -0.00313754 0)
(0.0020623 -0.00277041 0)
(0.0029825 -0.00239024 0)
(0.00378541 -0.00200217 0)
(0.00446822 -0.00161121 0)
(0.00502967 -0.00122215 0)
(0.00546998 -0.00083945 0)
(0.00579079 -0.000467248 0)
(0.00599505 -0.000109295 0)
(0.00608699 0.000231012 0)
(0.00607194 0.000550586 0)
(0.00595632 0.000846565 0)
(0.00574757 0.00111619 0)
(0.00545408 0.00135667 0)
(0.00508523 0.00156496 0)
(0.00465142 0.00173762 0)
(0.00416416 0.00187056 0)
(0.00363614 0.00195886 0)
(0.00308144 0.00199664 0)
(0.00251561 0.00197704 0)
(0.00195594 0.00189239 0)
(0.00142166 0.00173463 0)
(0.000933846 0.0014964 0)
(0.00051453 0.00117243 0)
(0.000194201 0.000761759 0)
(3.18055e-05 0.000272272 0)
(-1.88562e-05 9.75238e-05 0)
(-0.000145016 0.000434841 0)
(-0.000427266 0.000839138 0)
(-0.000836074 0.0012621 0)
(-0.00135791 0.00167248 0)
(-0.00198192 0.0020504 0)
(-0.00269559 0.00238499 0)
(-0.00348629 0.00267209 0)
(-0.00434207 0.00291213 0)
(-0.00525197 0.00310852 0)
(-0.00620617 0.00326632 0)
(-0.00719618 0.00339133 0)
(-0.00821477 0.00348941 0)
(-0.00925594 0.003566 0)
(-0.0103147 0.00362587 0)
(-0.0113872 0.00367294 0)
(-0.0124699 0.0037103 0)
(-0.0135603 0.00374017 0)
(-0.0146559 0.00376402 0)
(-0.0157547 0.00378265 0)
(-0.0168546 0.00379634 0)
(-0.0179537 0.00380488 0)
(-0.0190499 0.00380779 0)
(-0.0201412 0.00380429 0)
(-0.0212251 0.00379347 0)
(-0.0222993 0.00377431 0)
(-0.023361 0.00374574 0)
(-0.0244075 0.00370666 0)
(-0.0254358 0.00365596 0)
(-0.0264426 0.00359253 0)
(-0.0274245 0.00351529 0)
(-0.0283781 0.00342314 0)
(-0.0292995 0.00331501 0)
(-0.0301848 0.00318982 0)
(-0.0310298 0.0030465 0)
(-0.0318302 0.002884 0)
(-0.0325814 0.00270129 0)
(-0.0332785 0.00249741 0)
(-0.0339165 0.00227146 0)
(-0.0344902 0.00202269 0)
(-0.0349942 0.00175051 0)
(-0.0354228 0.00145452 0)
(-0.0357704 0.00113463 0)
(-0.0360314 0.000791053 0)
(-0.0362 0.000424382 0)
(-0.0362708 3.56476e-05 0)
(-0.0362386 -0.000373633 0)
(-0.0360985 -0.000801469 0)
(-0.0358461 -0.00124532 0)
(-0.0354777 -0.00170209 0)
(-0.0349902 -0.00216815 0)
(-0.0343817 -0.00263937 0)
(-0.0336509 -0.00311109 0)
(-0.032798 -0.00357828 0)
(-0.0318241 -0.0040355 0)
(-0.0307319 -0.00447708 0)
(-0.0295253 -0.00489717 0)
(-0.0282097 -0.00528987 0)
(-0.026792 -0.00564937 0)
(-0.0252804 -0.00597005 0)
(-0.0236846 -0.00624665 0)
(-0.0220157 -0.00647442 0)
(-0.0202857 -0.0066492 0)
(-0.018508 -0.00676757 0)
(-0.0166968 -0.00682696 0)
(-0.0148669 -0.00682574 0)
(-0.0130337 -0.00676328 0)
(-0.0112129 -0.00663997 0)
(-0.00942 -0.00645725 0)
(-0.00767046 -0.00621758 0)
(-0.00597907 -0.00592441 0)
(-0.00435988 -0.00558205 0)
(-0.00282593 -0.0051956 0)
(-0.00138904 -0.00477081 0)
(-5.9644e-05 -0.00431393 0)
(0.00115339 -0.00383155 0)
(0.00224285 -0.00333042 0)
(0.00320323 -0.00281734 0)
(0.00403081 -0.00229896 0)
(0.0047236 -0.00178166 0)
(0.00528129 -0.00127148 0)
(0.00570524 -0.000774031 0)
(0.00599831 -0.00029444 0)
(0.00616485 0.000162606 0)
(0.0062105 0.000592821 0)
(0.00614215 0.000992225 0)
(0.00596788 0.001357 0)
(0.00569685 0.00168329 0)
(0.00533933 0.00196703 0)
(0.00490669 0.00220364 0)
(0.0044115 0.00238786 0)
(0.00386758 0.00251345 0)
(0.00329016 0.00257307 0)
(0.00269608 0.00255822 0)
(0.00210397 0.00245934 0)
(0.00153475 0.00226623 0)
(0.00101147 0.00196884 0)
(0.000558742 0.00155836 0)
(0.000211032 0.00102875 0)
(3.44482e-05 0.000379595 0)
(-2.49528e-05 0.000181577 0)
(-0.000183599 0.000674377 0)
(-0.000530782 0.00122112 0)
(-0.00102487 0.00177288 0)
(-0.00164637 0.00229798 0)
(-0.00238074 0.00277647 0)
(-0.00321256 0.00319782 0)
(-0.00412706 0.00355857 0)
(-0.00511079 0.00386019 0)
(-0.00615171 0.00410733 0)
(-0.00723927 0.00430639 0)
(-0.0083644 0.00446454 0)
(-0.00951943 0.00458893 0)
(-0.010698 0.00468617 0)
(-0.0118948 0.00476202 0)
(-0.0131055 0.00482126 0)
(-0.0143265 0.00486758 0)
(-0.0155548 0.0049037 0)
(-0.0167875 0.00493138 0)
(-0.0180223 0.00495161 0)
(-0.0192569 0.00496471 0)
(-0.0204889 0.00497049 0)
(-0.0217159 0.00496836 0)
(-0.0229355 0.00495743 0)
(-0.0241451 0.00493664 0)
(-0.025342 0.00490482 0)
(-0.0265233 0.00486072 0)
(-0.0276861 0.00480309 0)
(-0.0288273 0.00473064 0)
(-0.0299435 0.00464211 0)
(-0.0310314 0.00453625 0)
(-0.0320875 0.00441179 0)
(-0.0331079 0.00426746 0)
(-0.0340888 0.00410199 0)
(-0.0350262 0.00391409 0)
(-0.0359155 0.0037025 0)
(-0.0367523 0.00346594 0)
(-0.0375317 0.00320322 0)
(-0.0382485 0.00291321 0)
(-0.0388973 0.00259493 0)
(-0.0394726 0.00224759 0)
(-0.0399683 0.00187067 0)
(-0.0403785 0.00146397 0)
(-0.040697 0.00102769 0)
(-0.0409176 0.000562501 0)
(-0.0410342 6.96116e-05 0)
(-0.0410409 -0.000449185 0)
(-0.040932 -0.000991476 0)
(-0.0407025 -0.00155417 0)
(-0.0403477 -0.00213348 0)
(-0.0398638 -0.00272497 0)
(-0.0392478 -0.00332353 0)
(-0.0384979 -0.00392343 0)
(-0.0376133 -0.00451841 0)
(-0.0365946 -0.00510173 0)
(-0.0354438 -0.00566632 0)
(-0.0341643 -0.00620484 0)
(-0.0327612 -0.00670991 0)
(-0.0312411 -0.00717418 0)
(-0.0296124 -0.00759054 0)
(-0.0278849 -0.00795228 0)
(-0.0260701 -0.00825328 0)
(-0.0241808 -0.00848813 0)
(-0.0222312 -0.00865234 0)
(-0.0202365 -0.00874243 0)
(-0.0182129 -0.00875609 0)
(-0.0161775 -0.00869223 0)
(-0.0141473 -0.00855107 0)
(-0.0121401 -0.00833412 0)
(-0.0101729 -0.00804422 0)
(-0.00826275 -0.00768542 0)
(-0.00642564 -0.00726295 0)
(-0.00467667 -0.00678305 0)
(-0.00302962 -0.0062528 0)
(-0.00149678 -0.00568 0)
(-8.87373e-05 -0.00507291 0)
(0.00118576 -0.00444007 0)
(0.00231988 -0.00379011 0)
(0.00330877 -0.00313153 0)
(0.00414958 -0.00247257 0)
(0.00484138 -0.00182103 0)
(0.00538513 -0.0011842 0)
(0.00578355 -0.000568839 0)
(0.00604104 1.89006e-05 0)
(0.00616352 0.000573349 0)
(0.00615833 0.00108924 0)
(0.00603415 0.00156155 0)
(0.00580089 0.00198527 0)
(0.00546965 0.00235516 0)
(0.00505275 0.00266548 0)
(0.00456373 0.0029097 0)
(0.00401749 0.00308021 0)
(0.00343039 0.00316812 0)
(0.00282045 0.00316319 0)
(0.00220769 0.00305379 0)
(0.00161462 0.00282722 0)
(0.00106628 0.00247024 0)
(0.000589649 0.00196984 0)
(0.000222483 0.00131413 0)
(3.61141e-05 0.000494062 0)
(-3.08404e-05 0.000285621 0)
(-0.000221439 0.000965062 0)
(-0.000632973 0.00167789 0)
(-0.00121192 0.002376 0)
(-0.00193274 0.00302858 0)
(-0.00277707 0.00361678 0)
(-0.00372638 0.00413138 0)
(-0.00476358 0.00457038 0)
(-0.00587358 0.00493685 0)
(-0.00704322 0.00523706 0)
(-0.00826116 0.00547906 0)
(-0.00951777 0.00567154 0)
(-0.010805 0.00582304 0)
(-0.0121161 0.00594141 0)
(-0.0134455 0.00603343 0)
(-0.0147887 0.00610471 0)
(-0.0161417 0.00615958 0)
(-0.0175012 0.0062012 0)
(-0.0188642 0.00623165 0)
(-0.020228 0.00625209 0)
(-0.0215898 0.0062629 0)
(-0.0229472 0.0062639 0)
(-0.0242975 0.00625442 0)
(-0.025638 0.00623351 0)
(-0.0269659 0.00619999 0)
(-0.0282786 0.00615259 0)
(-0.0295729 0.00608994 0)
(-0.0308461 0.00601066 0)
(-0.032095 0.00591339 0)
(-0.0333164 0.00579673 0)
(-0.0345073 0.0056593 0)
(-0.0356642 0.00549969 0)
(-0.0367836 0.00531647 0)
(-0.037862 0.00510817 0)
(-0.0388953 0.00487328 0)
(-0.0398795 0.00461027 0)
(-0.0408102 0.0043176 0)
(-0.0416824 0.00399376 0)
(-0.0424912 0.00363732 0)
(-0.0432309 0.003247 0)
(-0.0438957 0.00282172 0)
(-0.0444795 0.00236073 0)
(-0.0449756 0.00186362 0)
(-0.0453774 0.00133049 0)
(-0.0456779 0.000761975 0)
(-0.0458702 0.000159368 0)
(-0.0459474 -0.000475338 0)
(-0.0459029 -0.00113939 0)
(-0.0457304 -0.00182918 0)
(-0.0454242 -0.00254031 0)
(-0.044979 -0.0032675 0)
(-0.0443909 -0.0040047 0)
(-0.0436565 -0.00474506 0)
(-0.042774 -0.00548105 0)
(-0.0417428 -0.00620455 0)
(-0.0405639 -0.00690694 0)
(-0.0392398 -0.00757931 0)
(-0.0377749 -0.00821259 0)
(-0.0361754 -0.0087977 0)
(-0.0344492 -0.00932584 0)
(-0.0326061 -0.00978862 0)
(-0.0306579 -0.0101783 0)
(-0.0286179 -0.0104879 0)
(-0.0265011 -0.0107117 0)
(-0.0243238 -0.0108451 0)
(-0.0221039 -0.0108847 0)
(-0.0198597 -0.0108288 0)
(-0.0176105 -0.0106773 0)
(-0.0153759 -0.0104317 0)
(-0.0131754 -0.0100949 0)
(-0.0110284 -0.00967172 0)
(-0.00895319 -0.00916816 0)
(-0.00696742 -0.00859164 0)
(-0.00508721 -0.00795072 0)
(-0.00332709 -0.00725483 0)
(-0.00169973 -0.00651408 0)
(-0.000215787 -0.00573902 0)
(0.00111629 -0.00494033 0)
(0.00229028 -0.00412862 0)
(0.00330225 -0.00331421 0)
(0.00415048 -0.00250697 0)
(0.00483544 -0.00171614 0)
(0.00535963 -0.000950285 0)
(0.00572747 -0.000217296 0)
(0.00594516 0.000475588 0)
(0.00602051 0.00112164 0)
(0.00596283 0.00171449 0)
(0.00578281 0.00224783 0)
(0.00549245 0.0027152 0)
(0.00510503 0.00310958 0)
(0.00463514 0.00342312 0)
(0.00409876 0.00364678 0)
(0.00351342 0.00377007 0)
(0.00289839 0.00378084 0)
(0.0022751 0.00366522 0)
(0.00166765 0.00340773 0)
(0.001103 0.00299156 0)
(0.000610293 0.00239905 0)
(0.000229974 0.00161211 0)
(3.71298e-05 0.000613229 0)
(-3.65454e-05 0.000409191 0)
(-0.000258428 0.00130608 0)
(-0.000733262 0.0022086 0)
(-0.00139592 0.0030706 0)
(-0.00221488 0.00386338 0)
(-0.00316787 0.0045703 0)
(-0.00423315 0.00518435 0)
(-0.00539121 0.00570579 0)
(-0.00662525 0.00613987 0)
(-0.0079209 0.00649494 0)
(-0.00926601 0.00678096 0)
(-0.0106504 0.00700838 0)
(-0.0120655 0.00718726 0)
(-0.0135045 0.00732673 0)
(-0.0149615 0.00743465 0)
(-0.0164316 0.00751746 0)
(-0.0179108 0.00758011 0)
(-0.0193955 0.00762621 0)
(-0.0208825 0.00765815 0)
(-0.0223688 0.00767724 0)
(-0.0238515 0.00768397 0)
(-0.0253278 0.00767816 0)
(-0.0267951 0.00765914 0)
(-0.0282504 0.00762591 0)
(-0.0296911 0.00757725 0)
(-0.0311144 0.00751184 0)
(-0.0325175 0.00742828 0)
(-0.0338977 0.00732516 0)
(-0.0352521 0.00720105 0)
(-0.036578 0.0070545 0)
(-0.0378726 0.00688406 0)
(-0.039133 0.0066882 0)
(-0.0403562 0.00646533 0)
(-0.0415389 0.00621377 0)
(-0.0426778 0.00593177 0)
(-0.0437689 0.00561748 0)
(-0.0448082 0.005269 0)
(-0.045791 0.00488443 0)
(-0.0467123 0.00446193 0)
(-0.0475663 0.00399978 0)
(-0.0483471 0.00349649 0)
(-0.049048 0.00295089 0)
(-0.0496617 0.00236226 0)
(-0.0501809 0.00173041 0)
(-0.0505976 0.00105582 0)
(-0.0509038 0.000339711 0)
(-0.0510913 -0.000415824 0)
(-0.0511521 -0.00120782 0)
(-0.0510783 -0.00203227 0)
(-0.0508624 -0.00288417 0)
(-0.0504978 -0.00375752 0)
(-0.0499785 -0.00464528 0)
(-0.0492995 -0.00553947 0)
(-0.0484573 -0.00643126 0)
(-0.0474496 -0.00731101 0)
(-0.046276 -0.00816849 0)
(-0.0449375 -0.008993 0)
(-0.0434375 -0.00977358 0)
(-0.0417811 -0.0104992 0)
(-0.0399759 -0.0111591 0)
(-0.0380312 -0.0117429 0)
(-0.0359588 -0.0122409 0)
(-0.0337726 -0.0126444 0)
(-0.0314883 -0.0129459 0)
(-0.0291234 -0.0131392 0)
(-0.0266972 -0.0132199 0)
(-0.0242301 -0.0131853 0)
(-0.0217436 -0.0130346 0)
(-0.0192595 -0.012769 0)
(-0.0168004 -0.0123916 0)
(-0.0143882 -0.0119076 0)
(-0.0120444 -0.0113238 0)
(-0.00978944 -0.010649 0)
(-0.00764247 -0.00989309 0)
(-0.0056208 -0.00906743 0)
(-0.00373969 -0.00818417 0)
(-0.00201213 -0.00725605 0)
(-0.000448658 -0.00629614 0)
(0.0009428 -0.00531745 0)
(0.00215692 -0.00433271 0)
(0.00319099 -0.00335416 0)
(0.0040448 -0.00239329 0)
(0.00472057 -0.00146081 0)
(0.0052227 -0.000566574 0)
(0.00555767 0.000280358 0)
(0.00573383 0.00107161 0)
(0.00576121 0.00179928 0)
(0.00565138 0.00245567 0)
(0.00541735 0.00303295 0)
(0.00507349 0.00352279 0)
(0.00463555 0.00391594 0)
(0.00412074 0.00420189 0)
(0.00354786 0.00436843 0)
(0.00293755 0.00440141 0)
(0.00231271 0.00428457 0)
(0.00169911 0.0039994 0)
(0.00112554 0.0035253 0)
(0.00062314 0.0028397 0)
(0.000234597 0.00191827 0)
(3.772e-05 0.00073535 0)
(-4.20911e-05 0.000551807 0)
(-0.000294529 0.00169642 0)
(-0.000831334 0.00281191 0)
(-0.00157609 0.00385521 0)
(-0.00249138 0.00480079 0)
(-0.00355106 0.00563523 0)
(-0.00473014 0.00635471 0)
(-0.00600664 0.00696247 0)
(-0.00736198 0.00746655 0)
(-0.00878058 0.00787783 0)
(-0.0102494 0.00820853 0)
(-0.0117577 0.00847107 0)
(-0.0132967 0.00867718 0)
(-0.0148589 0.00883735 0)
(-0.0164386 0.00896056 0)
(-0.0180306 0.00905407 0)
(-0.0196307 0.00912349 0)
(-0.0212351 0.00917287 0)
(-0.0228404 0.00920488 0)
(-0.0244436 0.00922105 0)
(-0.0260416 0.00922197 0)
(-0.0276317 0.00920751 0)
(-0.029211 0.00917704 0)
(-0.0307768 0.00912961 0)
(-0.0323265 0.00906403 0)
(-0.0338576 0.00897902 0)
(-0.0353676 0.00887322 0)
(-0.0368543 0.00874528 0)
(-0.0383154 0.00859379 0)
(-0.0397487 0.00841733 0)
(-0.041152 0.00821439 0)
(-0.0425232 0.00798335 0)
(-0.04386 0.00772248 0)
(-0.0451597 0.00742986 0)
(-0.0464196 0.0071034 0)
(-0.0476363 0.00674088 0)
(-0.0488061 0.00633992 0)
(-0.0499246 0.0058981 0)
(-0.0509867 0.00541298 0)
(-0.0519867 0.00488223 0)
(-0.0529181 0.00430376 0)
(-0.0537736 0.00367581 0)
(-0.0545453 0.0029971 0)
(-0.0552247 0.00226698 0)
(-0.0558025 0.00148555 0)
(-0.0562693 0.000653792 0)
(-0.0566151 -0.0002263 0)
(-0.05683 -0.00115159 0)
(-0.0569041 -0.00211791 0)
(-0.0568279 -0.00311975 0)
(-0.0565922 -0.00415039 0)
(-0.0561889 -0.00520187 0)
(-0.0556107 -0.00626506 0)
(-0.0548517 -0.00732973 0)
(-0.0539076 -0.00838468 0)
(-0.0527758 -0.00941784 0)
(-0.0514556 -0.0104166 0)
(-0.0499486 -0.0113678 0)
(-0.0482589 -0.0122582 0)
(-0.0463928 -0.0130747 0)
(-0.0443593 -0.0138046 0)
(-0.04217 -0.0144359 0)
(-0.0398389 -0.0149576 0)
(-0.0373826 -0.0153601 0)
(-0.03482 -0.0156354 0)
(-0.0321718 -0.0157773 0)
(-0.0294607 -0.015782 0)
(-0.0267106 -0.0156474 0)
(-0.0239465 -0.0153744 0)
(-0.021194 -0.014966 0)
(-0.0184785 -0.0144275 0)
(-0.0158252 -0.0137667 0)
(-0.013258 -0.0129934 0)
(-0.0107998 -0.0121192 0)
(-0.00847131 -0.0111575 0)
(-0.0062911 -0.0101227 0)
(-0.00427513 -0.00902997 0)
(-0.00243654 -0.00789519 0)
(-0.000785492 -0.00673413 0)
(0.000670912 -0.00556235 0)
(0.00192863 -0.0043948 0)
(0.00298658 -0.00324566 0)
(0.00384651 -0.00212813 0)
(0.00451278 -0.00105436 0)
(0.00499217 -3.55109e-05 0)
(0.00529362 0.000918133 0)
(0.00542802 0.00179696 0)
(0.00540797 0.0025917 0)