/*--------------------------------*- C++ -*----------------------------------*\
  =========                 |
  \\      /  F ield         | OpenFOAM: The Open Source CFD Toolbox
   \\    /   O peration     | Website:  https://openfoam.org
    \\  /    A nd           | Version:  9
     \\/     M anipulation  |
\*---------------------------------------------------------------------------*/
FoamFile
{
    format      ascii;
    class       volScalarField;
    location    "2";
    object      p;
}
// * * * * * * * * * * * * * * * * * * * * * * * * * * * * * * * * * * * * * //

dimensions      [0 2 -2 0 0 0 0];

internalField   nonuniform List<scalar> 
10000
(
3.64121e-07
1.20586e-05
1.61829e-05
1.05287e-05
-6.23059e-06
-3.41896e-05
-7.265e-05
-0.00012064
-0.000177191
-0.000241439
-0.000312673
-0.000390346
-0.00047407
-0.000563591
-0.000658777
-0.000759587
-0.000866043
-0.000978207
-0.00109615
-0.00121994
-0.00134959
-0.00148508
-0.00162628
-0.00177297
-0.00192479
-0.00208125
-0.00224167
-0.00240521
-0.00257081
-0.00273722
-0.00290294
-0.00306628
-0.00322531
-0.00337789
-0.00352169
-0.00365419
-0.00377276
-0.00387466
-0.00395714
-0.00401746
-0.00405299
-0.00406128
-0.00404018
-0.00398791
-0.00390315
-0.00378514
-0.00363378
-0.00344969
-0.00323431
-0.00298991
-0.00271959
-0.00242726
-0.0021179
-0.00179709
-0.00147108
-0.00114672
-0.000831265
-0.000532157
-0.000256857
-1.25978e-05
0.000193849
0.000356402
0.000469896
0.000530279
0.000534776
0.000482011
0.000372079
0.00020655
-1.15793e-05
-0.000278036
-0.000587314
-0.000933034
-0.00130812
-0.00170507
-0.00211624
-0.0025341
-0.00295151
-0.00336188
-0.0037594
-0.00413911
-0.00449697
-0.00482993
-0.00513583
-0.00541341
-0.00566216
-0.00588226
-0.00607437
-0.00623957
-0.00637916
-0.00649456
-0.00658717
-0.00665827
-0.006709
-0.00674037
-0.00675335
-0.00674926
-0.00673035
-0.00670082
-0.00666733
-0.00664104
-1.07331e-05
7.87721e-07
2.41278e-06
-5.29458e-06
-2.24645e-05
-4.93057e-05
-8.54649e-05
-0.000130311
-0.000183146
-0.000243309
-0.000310234
-0.00038341
-0.000462531
-0.000547345
-0.000637701
-0.000733536
-0.000834841
-0.000941645
-0.00105399
-0.00117192
-0.00129543
-0.00142449
-0.00155897
-0.00169868
-0.00184329
-0.00199234
-0.00214524
-0.0023012
-0.00245928
-0.00261832
-0.00277697
-0.00293366
-0.00308661
-0.00323386
-0.00337322
-0.00350236
-0.00361881
-0.00372
-0.00380331
-0.00386614
-0.00390599
-0.00392049
-0.00390755
-0.00386542
-0.00379278
-0.00368882
-0.00355336
-0.00338691
-0.00319072
-0.00296688
-0.00271838
-0.0024488
-0.00216253
-0.00186504
-0.00156229
-0.00126073
-0.000967263
-0.00068896
-0.000432926
-0.000206056
-1.48058e-05
0.000135027
0.000238521
0.00029182
0.000292293
0.00023865
0.000131005
-2.91197e-05
-0.000238843
-0.00049404
-0.000789518
-0.00111916
-0.00147625
-0.0018537
-0.00224429
-0.00264094
-0.00303695
-0.00342617
-0.0038032
-0.00416342
-0.00450311
-0.00481945
-0.00511047
-0.00537501
-0.00561263
-0.00582346
-0.00600814
-0.00616765
-0.00630321
-0.00641615
-0.00650783
-0.00657957
-0.0066326
-0.00666809
-0.00668725
-0.00669152
-0.00668299
-0.00666494
-0.00664112
-0.00661473
-1.44697e-05
-6.75968e-07
7.54026e-07
-7.61913e-06
-2.48999e-05
-5.1138e-05
-8.60224e-05
-0.000129006
-0.000179497
-0.000236931
-0.0003008
-0.000370731
-0.000446367
-0.000527501
-0.000614
-0.000705801
-0.000802897
-0.000905316
-0.0010131
-0.0011263
-0.00124494
-0.00136899
-0.00149836
-0.0016329
-0.00177233
-0.00191626
-0.00206416
-0.00221534
-0.00236894
-0.00252392
-0.00267902
-0.00283279
-0.00298357
-0.0031295
-0.0032685
-0.00339833
-0.0035166
-0.0036208
-0.00370836
-0.0037767
-0.00382329
-0.00384577
-0.00384199
-0.0038101
-0.00374868
-0.00365682
-0.00353418
-0.00338113
-0.00319874
-0.00298896
-0.00275456
-0.00249856
-0.00222597
-0.0019417
-0.00165152
-0.00136178
-0.00107924
-0.000810882
-0.000563715
-0.000344563
-0.000159828
-1.5267e-05
8.42263e-05
0.000134813
0.000133869
8.01052e-05
-2.63712e-05
-0.00018405
-0.000390068
-0.000640327
-0.000929651
-0.00125202
-0.00160075
-0.00196885
-0.00234922
-0.00273491
-0.00311939
-0.00349669
-0.00386158
-0.00420968
-0.00453746
-0.00484229
-0.00512241
-0.00537681
-0.00560516
-0.00580774
-0.00598524
-0.00613872
-0.00626944
-0.00637876
-0.00646808
-0.00653875
-0.00659203
-0.00662911
-0.00665112
-0.00665927
-0.00665515
-0.00664103
-0.0066174
-0.00658115
-8.28813e-06
7.23582e-06
8.73848e-06
-5.04222e-08
-1.75419e-05
-4.35795e-05
-7.77708e-05
-0.000119558
-0.000168388
-0.000223748
-0.000285187
-0.000352345
-0.000424937
-0.000502781
-0.000585768
-0.00067386
-0.00076707
-0.00086545
-0.000969075
-0.00107803
-0.00119236
-0.0013121
-0.00143723
-0.00156764
-0.00170314
-0.00184342
-0.00198805
-0.00213645
-0.00228785
-0.00244132
-0.00259571
-0.00274967
-0.00290163
-0.0030498
-0.00319216
-0.00332653
-0.0034505
-0.00356157
-0.00365712
-0.00373449
-0.00379107
-0.00382436
-0.00383206
-0.00381218
-0.00376311
-0.00368375
-0.00357359
-0.00343279
-0.00326228
-0.00306382
-0.00283998
-0.00259383
-0.00233013
-0.00205375
-0.00177041
-0.00148646
-0.00120863
-0.000943971
-0.000699532
-0.000482217
-0.00029852
-0.000154299
-5.45519e-05
-3.21716e-06
-3.00616e-06
-5.52797e-05
-0.000159978
-0.000315612
-0.000519313
-0.000766947
-0.00105328
-0.00137221
-0.001717
-0.00208055
-0.00245569
-0.00283545
-0.00321327
-0.0035832
-0.00394008
-0.00427962
-0.00459843
-0.00489405
-0.00516487
-0.00541009
-0.00562958
-0.00582378
-0.00599357
-0.00614014
-0.00626489
-0.0063693
-0.00645485
-0.00652294
-0.00657484
-0.00661169
-0.00663443
-0.00664389
-0.00664106
-0.00662726
-0.00660033
-0.00655266
9.60351e-06
2.49063e-05
2.5669e-05
1.60472e-05
-2.05077e-06
-2.82948e-05
-6.22078e-05
-0.000103214
-0.000150779
-0.00020442
-0.000263738
-0.000328407
-0.000398197
-0.000472962
-0.000552635
-0.000637214
-0.000726756
-0.000821362
-0.000921158
-0.00102628
-0.00113686
-0.001253
-0.00137476
-0.00150213
-0.00163504
-0.00177327
-0.00191653
-0.00206434
-0.00221606
-0.00237087
-0.00252772
-0.00268537
-0.00284229
-0.00299673
-0.0031467
-0.00328998
-0.00342412
-0.00354652
-0.00365442
-0.00374503
-0.00381554
-0.00386326
-0.00388566
-0.00388053
-0.00384602
-0.00378082
-0.00368418
-0.00355609
-0.0033973
-0.00320933
-0.00299435
-0.00275646
-0.00249928
-0.00222789
-0.00194808
-0.00166621
-0.00138914
-0.00112397
-0.00087791
-0.000658021
-0.000470974
-0.000322815
-0.000218737
-0.000162869
-0.000158094
-0.000205922
-0.000306406
-0.00045813
-0.00065825
-0.000902609
-0.00118591
-0.00150192
-0.00184378
-0.00220422
-0.00257595
-0.00295177
-0.00332503
-0.00368969
-0.00404053
-0.00437327
-0.00468458
-0.00497211
-0.00523439
-0.00547081
-0.00568143
-0.00586692
-0.00602837
-0.00616717
-0.0062849
-0.00638322
-0.00646371
-0.00652788
-0.00657701
-0.00661218
-0.00663415
-0.00664339
-0.00664035
-0.00662559
-0.00659492
-0.00653737
3.9749e-05
5.28293e-05
5.1837e-05
4.07567e-05
2.1536e-05
-5.37306e-06
-3.9438e-05
-8.00743e-05
-0.000126761
-0.000179061
-0.000236611
-0.00029914
-0.000366465
-0.000438495
-0.000515215
-0.000596684
-0.000683023
-0.000774404
-0.000871035
-0.000973139
-0.00108094
-0.00119467
-0.00131449
-0.00144054
-0.00157286
-0.00171141
-0.001856
-0.00200631
-0.00216182
-0.00232182
-0.00248536
-0.00265123
-0.00281796
-0.00298377
-0.00314661
-0.00330417
-0.00345386
-0.0035929
-0.00371832
-0.00382708
-0.00391613
-0.00398247
-0.00402333
-0.00403618
-0.00401894
-0.00397001
-0.00388845
-0.00377402
-0.0036273
-0.00344969
-0.00324333
-0.00301184
-0.00275919
-0.00249039
-0.00221122
-0.00192813
-0.00164804
-0.00137824
-0.0011261
-0.00089891
-0.00070358
-0.000546426
-0.000432922
-0.000367477
-0.000353248
-0.000391992
-0.000483971
-0.000627929
-0.000821123
-0.00105943
-0.00133753
-0.00164909
-0.0019871
-0.00234409
-0.00271253
-0.00308503
-0.00345467
-0.00381524
-0.00416136
-0.00448864
-0.00479373
-0.00507427
-0.00532889
-0.00555717
-0.00575929
-0.00593613
-0.00608902
-0.00621958
-0.00632962
-0.00642098
-0.00649541
-0.00655454
-0.00659971
-0.00663195
-0.00665192
-0.00665979
-0.00665561
-0.00663937
-0.0066055
-0.00654078
8.18547e-05
9.09085e-05
8.71291e-05
7.39064e-05
5.30116e-05
2.4968e-05
-9.66558e-06
-5.03224e-05
-9.65135e-05
-0.000147846
-0.000204013
-0.000264802
-0.000330095
-0.000399865
-0.000474168
-0.000553145
-0.000637007
-0.000726025
-0.000820516
-0.00092083
-0.00102733
-0.00114039
-0.00126033
-0.00138746
-0.001522
-0.00166405
-0.0018136
-0.00197047
-0.00213427
-0.00230438
-0.00247991
-0.00265966
-0.00284212
-0.00302545
-0.00320745
-0.00338563
-0.00355716
-0.00371901
-0.0038679
-0.00400048
-0.00411336
-0.00420321
-0.00426693
-0.00430168
-0.00430509
-0.00427529
-0.00421108
-0.00411202
-0.0039785
-0.00381178
-0.00361395
-0.00338837
-0.00313909
-0.00287108
-0.00259016
-0.00230282
-0.00201613
-0.00173751
-0.00147456
-0.00123483
-0.00102551
-0.000853285
-0.000723985
-0.000642408
-0.000612099
-0.000635185
-0.00071227
-0.000842382
-0.001023
-0.00125015
-0.00151855
-0.00182185
-0.00215291
-0.00250409
-0.00286758
-0.00323575
-0.00360135
-0.00395792
-0.00429977
-0.00462232
-0.00492208
-0.00519661
-0.00544456
-0.00566545
-0.00585971
-0.00602836
-0.00617292
-0.00629524
-0.00639736
-0.00648133
-0.00654911
-0.00660246
-0.00664283
-0.00667128
-0.00668839
-0.00669417
-0.00668838
-0.00667066
-0.00663463
-0.00656581
0.000135223
0.000138643
0.0001311
0.000115068
9.19623e-05
6.2345e-05
2.67651e-05
-1.42635e-05
-6.03145e-05
-0.000111057
-0.000166256
-0.000225772
-0.000289566
-0.000357693
-0.000430307
-0.000507652
-0.000590058
-0.000677927
-0.000771722
-0.00087196
-0.000979183
-0.00109394
-0.00121678
-0.00134819
-0.00148858
-0.00163826
-0.0017974
-0.00196594
-0.00214361
-0.00232985
-0.00252378
-0.00272417
-0.00292938
-0.00313742
-0.00334586
-0.00355193
-0.0037525
-0.00394417
-0.00412331
-0.00428616
-0.00442896
-0.00454801
-0.00463982
-0.00470125
-0.00472958
-0.00472268
-0.00467907
-0.00459809
-0.00447991
-0.0043256
-0.00413719
-0.00391784
-0.00367152
-0.00340318
-0.00311861
-0.00282436
-0.00252758
-0.00223587
-0.00195703
-0.0016989
-0.00146903
-0.00127451
-0.00112164
-0.00101571
-0.000960798
-0.000959548
-0.00101307
-0.00112084
-0.00128072
-0.00148903
-0.00174069
-0.00202943
-0.00234806
-0.00268881
-0.00304366
-0.00340464
-0.00376419
-0.00411544
-0.00445239
-0.00477014
-0.00506488
-0.00533401
-0.00557604
-0.00579048
-0.00597774
-0.00613898
-0.00627586
-0.00639041
-0.00648489
-0.00656157
-0.0066226
-0.00666993
-0.00670514
-0.00672938
-0.00674322
-0.00674662
-0.0067392
-0.00672036
-0.00668341
-0.00661349
0.000198915
0.000195277
0.00018308
0.000163629
0.000137834
0.00010626
6.94014e-05
2.76753e-05
-1.8582e-05
-6.91307e-05
-0.000123828
-0.000182629
-0.000245591
-0.000312878
-0.000384766
-0.000461632
-0.000543956
-0.00063231
-0.00072735
-0.000829796
-0.000940414
-0.00105999
-0.00118929
-0.00132906
-0.00147993
-0.00164241
-0.00181683
-0.00200327
-0.00220153
-0.00241107
-0.00263096
-0.00285984
-0.00309588
-0.00333684
-0.00357998
-0.00382216
-0.00405986
-0.00428924
-0.00450625
-0.00470671
-0.0048864
-0.00504124
-0.00516735
-0.00526121
-0.00531977
-0.00534058
-0.0053219
-0.00526278
-0.00516313
-0.00502379
-0.0048467
-0.00463473
-0.00439174
-0.00412257
-0.00383295
-0.00352943
-0.00321921
-0.00291
-0.00260985
-0.00232686
-0.00206901
-0.00184383
-0.00165819
-0.00151801
-0.00142803
-0.0013916
-0.00141053
-0.00148494
-0.0016133
-0.00179241
-0.00201758
-0.00228277
-0.00258092
-0.0029042
-0.0032444
-0.0035933
-0.00394295
-0.00428607
-0.00461621
-0.00492802
-0.00521733
-0.00548118
-0.00571782
-0.00592661
-0.00610782
-0.0062627
-0.0063929
-0.0065006
-0.00658821
-0.0066582
-0.00671293
-0.00675452
-0.00678473
-0.00680481
-0.00681544
-0.00681657
-0.0068078
-0.00678844
-0.00675186
-0.00668347
0.000271802
0.000259781
0.000242181
0.000218773
0.000189883
0.000156036
0.000117604
7.48773e-05
2.80592e-05
-2.2733e-05
-7.74741e-05
-0.000136237
-0.000199205
-0.000266681
-0.000339085
-0.000416969
-0.000501
-0.000591966
-0.000690757
-0.000798348
-0.00091577
-0.00104409
-0.00118434
-0.00133753
-0.00150453
-0.00168606
-0.00188259
-0.00209431
-0.00232104
-0.00256219
-0.0028167
-0.003083
-0.00335899
-0.00364207
-0.00392911
-0.00421653
-0.00450034
-0.00477622
-0.00503965
-0.00528595
-0.00551046
-0.00570867
-0.00587627
-0.00600936
-0.00610453
-0.00615897
-0.00617063
-0.00613822
-0.00606136
-0.0059406
-0.00577764
-0.00557509
-0.00533658
-0.00506677
-0.00477125
-0.00445648
-0.00412968
-0.00379863
-0.00347154
-0.00315684
-0.00286288
-0.00259774
-0.00236892
-0.00218309
-0.00204582
-0.00196134
-0.00193235
-0.00195989
-0.00204326
-0.00218002
-0.0023661
-0.00259593
-0.00286273
-0.0031588
-0.00347586
-0.00380545
-0.00413929
-0.00446961
-0.00478947
-0.00509297
-0.00537542
-0.00563337
-0.00586467
-0.00606835
-0.00624452
-0.00639408
-0.00651883
-0.00662093
-0.00670288
-0.00676729
-0.00681667
-0.00685332
-0.00687917
-0.00689564
-0.00690352
-0.00690286
-0.0068933
-0.00687416
-0.00683913
-0.00677446
0.000352506
0.00033094
0.000307222
0.000279423
0.000247126
0.000210731
0.000170479
0.000126458
7.86978e-05
2.71622e-05
-2.82736e-05
-8.78318e-05
-0.000151851
-0.000220803
-0.000295297
-0.000376089
-0.000464089
-0.000560344
-0.000666029
-0.000782421
-0.000910864
-0.00105274
-0.00120939
-0.00138208
-0.00157195
-0.00177989
-0.0020065
-0.00225201
-0.0025162
-0.00279835
-0.00309719
-0.00341084
-0.00373686
-0.00407219
-0.00441323
-0.00475589
-0.00509565
-0.00542769
-0.00574694
-0.00604823
-0.00632642
-0.00657651
-0.00679377
-0.00697388
-0.00711302
-0.007208
-0.00725637
-0.0072565
-0.00720763
-0.00710995
-0.00696485
-0.00677458
-0.00654249
-0.00627294
-0.00597132
-0.00564391
-0.00529784
-0.00494091
-0.00458146
-0.00422815
-0.00388973
-0.00357484
-0.00329167
-0.00304773
-0.00284954
-0.00270242
-0.0026102
-0.00257507
-0.00259745
-0.00267597
-0.00280747
-0.00298714
-0.00320875
-0.00346494
-0.00374753
-0.00404796
-0.00435765
-0.00466836
-0.0049726
-0.00526383
-0.0055367
-0.00578713
-0.00601237
-0.00621098
-0.00638263
-0.00652802
-0.00664865
-0.00674663
-0.00682445
-0.00688475
-0.00693017
-0.00696315
-0.00698576
-0.00699959
-0.00700557
-0.00700391
-0.00699432
-0.00697621
-0.00694381
-0.00688453
0.000439412
0.000407197
0.000376762
0.00034423
0.00030826
0.00026912
0.000226818
0.000181196
0.000132067
7.91978e-05
2.22815e-05
-3.90916e-05
-0.000105451
-0.000177471
-0.000255993
-0.000342034
-0.000436787
-0.000541614
-0.000658026
-0.00078765
-0.000932188
-0.00109336
-0.00127284
-0.00147217
-0.00169271
-0.00193551
-0.00220125
-0.00249013
-0.00280181
-0.00313535
-0.00348918
-0.00386103
-0.00424799
-0.0046465
-0.00505243
-0.00546111
-0.00586745
-0.00626605
-0.00665128
-0.00701746
-0.00735892
-0.00767017
-0.007946
-0.00818163
-0.00837281
-0.00851592
-0.00860809
-0.00864726
-0.00863227
-0.00856289
-0.00844006
-0.00826569
-0.0080427
-0.00777511
-0.00746797
-0.00712732
-0.00676008
-0.00637397
-0.00597736
-0.00557909
-0.00518825
-0.00481399
-0.0044652
-0.0041503
-0.00387688
-0.00365147
-0.00347924
-0.00336382
-0.00330704
-0.00330893
-0.00336759
-0.00347935
-0.00363886
-0.0038394
-0.00407315
-0.00433163
-0.00460608
-0.00488788
-0.00516892
-0.00544198
-0.00570091
-0.00594085
-0.00615831
-0.00635113
-0.00651839
-0.00666032
-0.00677803
-0.00687341
-0.00694877
-0.00700672
-0.00704991
-0.00708085
-0.00710172
-0.00711425
-0.00711953
-0.0071179
-0.00710922
-0.007093
-0.00706411
-0.00701141
0.000530587
0.000486698
0.000449047
0.000411495
0.000371678
0.000329621
0.000285045
0.000237485
0.000186486
0.000131576
7.22233e-05
7.79631e-06
-6.24656e-05
-0.000139489
-0.000224395
-0.00031851
-0.00042337
-0.000540702
-0.000672406
-0.000820503
-0.000987085
-0.00117424
-0.00138396
-0.00161808
-0.00187813
-0.00216527
-0.00248018
-0.00282296
-0.00319307
-0.00358925
-0.00400953
-0.00445116
-0.00491069
-0.00538398
-0.00586629
-0.00635232
-0.00683638
-0.00731245
-0.00777431
-0.0082157
-0.0086304
-0.00901241
-0.00935602
-0.00965596
-0.00990751
-0.0101066
-0.0102499
-0.0103349
-0.0103599
-0.0103245
-0.0102288
-0.0100745
-0.00986393
-0.00960078
-0.00928963
-0.00893615
-0.00854696
-0.00812956
-0.00769223
-0.00724386
-0.00679377
-0.00635154
-0.00592672
-0.00552858
-0.00516584
-0.00484634
-0.00457677
-0.00436238
-0.00420677
-0.00411168
-0.00407691
-0.0041003
-0.00417784
-0.00430381
-0.00447113
-0.00467169
-0.00489677
-0.00513746
-0.00538513
-0.0056318
-0.00587047
-0.00609531
-0.00630189
-0.00648714
-0.00664934
-0.00678801
-0.0069037
-0.00699783
-0.00707243
-0.00712989
-0.00717277
-0.00720356
-0.00722449
-0.00723735
-0.00724336
-0.00724301
-0.0072363
-0.00722283
-0.0071982
-0.00715278
0.000623752
0.000567279
0.000521944
0.000479182
0.000435385
0.000390262
0.000343172
0.00029328
0.00023981
0.000182004
0.000119062
5.00909e-05
-2.59488e-05
-0.000110288
-0.00020438
-0.000309918
-0.000428836
-0.000563284
-0.000715595
-0.000888224
-0.00108368
-0.00130441
-0.00155274
-0.00183073
-0.00214006
-0.00248193
-0.00285692
-0.00326495
-0.00370516
-0.0041759
-0.00467467
-0.00519818
-0.00574235
-0.0063024
-0.00687288
-0.00744786
-0.00802094
-0.00858545
-0.00913456
-0.00966139
-0.0101592
-0.0106213
-0.0110416
-0.0114143
-0.0117341
-0.0119967
-0.0121981
-0.0123354
-0.0124066
-0.0124105
-0.012347
-0.0122171
-0.012023
-0.0117675
-0.0114548
-0.0110901
-0.0106796
-0.0102304
-0.00975057
-0.00924887
-0.0087347
-0.00821788
-0.00770847
-0.00721653
-0.00675181
-0.0063235
-0.00593986
-0.00560796
-0.00533339
-0.00511995
-0.00496953
-0.00488197
-0.00485505
-0.0048846
-0.00496473
-0.0050881
-0.00524637
-0.0054306
-0.00563175
-0.00584115
-0.00605084
-0.00625394
-0.00644487
-0.00661943
-0.00677484
-0.00690966
-0.00702366
-0.00711757
-0.00719292
-0.00725172
-0.00729628
-0.00732894
-0.00735189
-0.00736691
-0.00737529
-0.00737762
-0.00737399
-0.00736413
-0.00734432
-0.00730648
0.00071627
0.000646317
0.000592966
0.00054486
0.000496985
0.000448646
0.000398766
0.000346066
0.000289393
0.00022766
0.000159754
8.44692e-05
4.35203e-07
-9.39358e-05
-0.00020049
-0.000321346
-0.000458891
-0.000615748
-0.000794727
-0.000998742
-0.00123072
-0.00149349
-0.00178964
-0.00212143
-0.00249062
-0.00289833
-0.00334499
-0.0038302
-0.0043527
-0.0049103
-0.00549994
-0.00611765
-0.00675865
-0.0074174
-0.00808775
-0.00876298
-0.00943601
-0.0100994
-0.0107458
-0.0113675
-0.0119573
-0.012508
-0.0130128
-0.0134656
-0.0138607
-0.014193
-0.0144586
-0.0146539
-0.0147765
-0.0148248
-0.014798
-0.0146972
-0.0145236
-0.0142795
-0.0139686
-0.0135956
-0.013166
-0.0126865
-0.0121647
-0.011609
-0.0110286
-0.0104335
-0.00983394
-0.00924055
-0.00866398
-0.00811461
-0.00760227
-0.00713588
-0.00672317
-0.00637028
-0.00608156
-0.0058593
-0.00570364
-0.00561252
-0.00558181
-0.00560553
-0.00567618
-0.0057852
-0.00592341
-0.00608157
-0.00625082
-0.00642312
-0.00659157
-0.00675063
-0.00689618
-0.00702555
-0.00713742
-0.00723161
-0.00730886
-0.00737063
-0.0074188
-0.00745535
-0.00748235
-0.00750146
-0.00751393
-0.00752039
-0.00752102
-0.0075156
-0.00750105
-0.00747073
0.000805027
0.000720876
0.000659231
0.000605694
0.000553663
0.000501941
0.000448926
0.000392832
0.000332074
0.000265184
0.000190689
0.000107016
1.24109e-05
-9.51326e-05
-0.000217911
-0.000358528
-0.000519881
-0.00070511
-0.000917528
-0.00116052
-0.00143744
-0.00175144
-0.00210536
-0.00250155
-0.00294177
-0.00342698
-0.00395732
-0.00453197
-0.00514915
-0.00580603
-0.00649885
-0.00722287
-0.00797251
-0.00874142
-0.00952261
-0.0103086
-0.0110914
-0.011863
-0.0126152
-0.0133398
-0.0140289
-0.0146747
-0.0152702
-0.0158086
-0.016284
-0.016691
-0.0170251
-0.0172825
-0.0174606
-0.0175573
-0.0175716
-0.0175037
-0.0173544
-0.0171259
-0.0168209
-0.0164435
-0.0159987
-0.0154924
-0.0149315
-0.0143241
-0.0136788
-0.0130053
-0.0123139
-0.0116155
-0.0109213
-0.0102426
-0.00959061
-0.00897602
-0.00840867
-0.0078972
-0.00744868
-0.00706826
-0.00675896
-0.00652147
-0.00635412
-0.00625297
-0.00621203
-0.00622366
-0.00627901
-0.00636859
-0.00648279
-0.00661241
-0.00674912
-0.00688581
-0.00701676
-0.00713777
-0.00724608
-0.00734027
-0.00742008
-0.0074861
-0.00753954
-0.00758195
-0.00761498
-0.00764009
-0.00765839
-0.00767049
-0.00767654
-0.00767634
-0.00766737
-0.00764425
0.000886549
0.000787593
0.000717456
0.000658441
0.000602178
0.00054686
0.000490278
0.000430072
0.000364172
0.000290677
0.000207699
0.000113246
5.11957e-06
-0.000119163
-0.000262413
-0.000427775
-0.000618701
-0.000838883
-0.00109216
-0.00138238
-0.00171329
-0.00208833
-0.00251049
-0.00298217
-0.00350497
-0.00407959
-0.00470576
-0.00538212
-0.00610619
-0.00687444
-0.00768223
-0.00852397
-0.00939316
-0.0102826
-0.0111842
-0.0120898
-0.0129906
-0.0138777
-0.0147422
-0.0155753
-0.0163686
-0.0171139
-0.0178036
-0.0184308
-0.0189891
-0.0194731
-0.019878
-0.0201999
-0.0204357
-0.0205833
-0.0206415
-0.0206096
-0.0204885
-0.0202794
-0.0199848
-0.019608
-0.0191531
-0.0186254
-0.018031
-0.0173771
-0.0166717
-0.0159238
-0.0151435
-0.0143413
-0.0135288
-0.0127178
-0.0119204
-0.0111488
-0.0104149
-0.0097296
-0.00910285
-0.00854295
-0.00805624
-0.00764674
-0.00731597
-0.00706284
-0.0068837
-0.00677261
-0.00672174
-0.00672185
-0.00676291
-0.00683476
-0.00692761
-0.00703262
-0.0071422
-0.00725028
-0.00735233
-0.00744533
-0.00752763
-0.00759867
-0.00765875
-0.00770869
-0.00774959
-0.00778254
-0.00780838
-0.00782757
-0.00784017
-0.00784594
-0.00784279
-0.0078264
0.000956948
0.000842717
0.000763968
0.000699459
0.000638868
0.000579678
0.000518991
0.000453808
0.000381516
0.00029973
0.000206098
9.81481e-05
-2.68205e-05
-0.00017183
-0.000340262
-0.000535855
-0.000762652
-0.00102492
-0.00132701
-0.00167324
-0.00206767
-0.00251398
-0.00301521
-0.00357367
-0.0041907
-0.00486661
-0.00560054
-0.00639044
-0.00723305
-0.00812391
-0.00905743
-0.010027
-0.0110252
-0.0120436
-0.0130734
-0.0141052
-0.0151296
-0.0161368
-0.0171173
-0.0180617
-0.0189611
-0.019807
-0.0205916
-0.0213078
-0.021949
-0.0225098
-0.0229853
-0.0233716
-0.0236655
-0.0238647
-0.0239679
-0.0239742
-0.0238839
-0.0236979
-0.0234182
-0.0230472
-0.0225884
-0.0220462
-0.0214258
-0.0207333
-0.0199759
-0.0191617
-0.0182999
-0.0174006
-0.0164748
-0.0155346
-0.0145924
-0.0136616
-0.0127553
-0.0118868
-0.0110686
-0.0103121
-0.00962743
-0.00902228
-0.00850207
-0.0080694
-0.0077239
-0.00746233
-0.00727874
-0.00716498
-0.00711121
-0.00710665
-0.00714025
-0.00720139
-0.00728041
-0.00736902
-0.00746054
-0.00754993
-0.00763375
-0.00770994
-0.00777753
-0.00783635
-0.00788674
-0.0079292
-0.00796418
-0.00799184
-0.00801207
-0.00802452
-0.00802739
-0.00801721
0.00101194
0.000882133
0.000794729
0.000724725
0.000659679
0.00059626
0.000530806
0.000459615
0.000379479
0.000287479
0.00018074
5.62605e-05
-8.92278e-05
-0.000259344
-0.000458094
-0.000689847
-0.000959266
-0.00127119
-0.00163049
-0.00204187
-0.00250966
-0.00303765
-0.00362885
-0.00428532
-0.00500801
-0.00579665
-0.00664965
-0.00756412
-0.0085358
-0.0095592
-0.0106276
-0.0117333
-0.0128676
-0.0140212
-0.0151841
-0.016346
-0.0174965
-0.0186253
-0.0197221
-0.0207773
-0.0217814
-0.022726
-0.0236029
-0.0244052
-0.0251264
-0.025761
-0.0263043
-0.0267525
-0.0271026
-0.0273523
-0.0275001
-0.027545
-0.0274871
-0.0273271
-0.0270661
-0.0267062
-0.02625
-0.0257011
-0.0250635
-0.0243425
-0.023544
-0.0226749
-0.0217433
-0.0207582
-0.01973
-0.01867
-0.0175906
-0.0165054
-0.0154286
-0.0143748
-0.013359
-0.0123954
-0.0114976
-0.0106774
-0.0099447
-0.00930642
-0.00876649
-0.00832544
-0.00798038
-0.00772529
-0.00755146
-0.00744818
-0.00740356
-0.00740535
-0.00744174
-0.00750195
-0.00757674
-0.00765861
-0.00774188
-0.00782249
-0.00789786
-0.00796649
-0.00802766
-0.00808109
-0.00812663
-0.00816404
-0.00819292
-0.00821273
-0.00822182
-0.00821736
0.00104691
0.000901404
0.000805376
0.000729882
0.000660207
0.000592111
0.000521092
0.000442688
0.00035305
0.000248674
0.000126112
-1.82317e-05
-0.000188244
-0.000388195
-0.000622758
-0.000896966
-0.00121611
-0.00158559
-0.00201074
-0.00249658
-0.00304764
-0.00366768
-0.00435953
-0.00512486
-0.00596403
-0.00687604
-0.00785838
-0.00890711
-0.0100168
-0.0111808
-0.0123911
-0.0136388
-0.0149138
-0.0162057
-0.0175035
-0.0187959
-0.0200719
-0.0213202
-0.0225304
-0.0236922
-0.0247964
-0.0258343
-0.026798
-0.0276805
-0.0284758
-0.0291786
-0.0297846
-0.0302902
-0.0306925
-0.0309895
-0.0311798
-0.0312624
-0.0312373
-0.0311047
-0.0308656
-0.0305214
-0.0300741
-0.0295262
-0.0288811
-0.0281426
-0.0273155
-0.0264053
-0.0254187
-0.0243634
-0.0232483
-0.0220837
-0.0208813
-0.0196541
-0.0184165
-0.0171839
-0.0159726
-0.0147995
-0.0136811
-0.0126332
-0.0116702
-0.0108042
-0.010044
-0.00939505
-0.00885889
-0.00843291
-0.00811077
-0.00788291
-0.00773736
-0.0076607
-0.00763909
-0.00765913
-0.00770869
-0.00777732
-0.00785654
-0.00793984
-0.00802252
-0.00810133
-0.0081742
-0.00823977
-0.00829711
-0.00834543
-0.00838391
-0.00841172
-0.00842731
-0.00842821
0.00105696
0.000895826
0.000791281
0.000710297
0.000635764
0.000562435
0.00048491
0.000397919
0.000296922
0.000177785
3.64337e-05
-0.000131371
-0.00033019
-0.000564991
-0.000841146
-0.00116436
-0.00154055
-0.00197564
-0.00247535
-0.00304494
-0.00368899
-0.00441111
-0.00521377
-0.00609806
-0.00706359
-0.00810838
-0.00922883
-0.0104198
-0.0116744
-0.0129847
-0.0143413
-0.0157338
-0.017151
-0.0185812
-0.0200123
-0.0214323
-0.0228293
-0.0241918
-0.0255088
-0.0267702
-0.0279666
-0.0290896
-0.0301316
-0.0310861
-0.0319474
-0.0327107
-0.0333722
-0.0339286
-0.0343775
-0.0347172
-0.0349465
-0.0350644
-0.0350709
-0.0349662
-0.0347509
-0.034426
-0.0339929
-0.0334533
-0.0328097
-0.0320648
-0.0312221
-0.0302857
-0.0292607
-0.0281532
-0.0269704
-0.025721
-0.0244153
-0.023065
-0.0216838
-0.0202871
-0.0188917
-0.0175158
-0.0161784
-0.0148988
-0.0136956
-0.0125859
-0.0115843
-0.0107021
-0.00994636
-0.00931936
-0.00881872
-0.00843743
-0.00816465
-0.00798666
-0.00788804
-0.0078529
-0.00786595
-0.00791338
-0.00798337
-0.00806636
-0.00815494
-0.00824368
-0.00832869
-0.00840727
-0.00847745
-0.00853769
-0.00858666
-0.00862313
-0.00864558
-0.00865166
0.00103701
0.000860512
0.000747626
0.000661142
0.000581451
0.000502229
0.000417116
0.000319996
0.000205601
6.91187e-05
-9.41974e-05
-0.000289279
-0.000521406
-0.000796276
-0.00111998
-0.0014989
-0.00193952
-0.00244825
-0.00303109
-0.00369344
-0.00443977
-0.00527337
-0.00619614
-0.00720842
-0.00830882
-0.0094942
-0.0107596
-0.0120985
-0.0135026
-0.0149622
-0.0164665
-0.0180036
-0.0195611
-0.0211261
-0.0226856
-0.0242268
-0.0257372
-0.0272052
-0.0286197
-0.0299706
-0.0312489
-0.0324465
-0.0335565
-0.0345728
-0.0354903
-0.0363049
-0.0370133
-0.0376129
-0.0381016
-0.0384782
-0.0387416
-0.0388913
-0.0389273
-0.0388496
-0.0386588
-0.0383554
-0.0379406
-0.0374154
-0.0367813
-0.0360401
-0.0351941
-0.034246
-0.0331994
-0.0320585
-0.0308288
-0.0295169
-0.0281312
-0.0266818
-0.0251805
-0.0236418
-0.0220819
-0.0205193
-0.0189745
-0.017469
-0.0160251
-0.0146646
-0.0134078
-0.0122724
-0.0112721
-0.0104155
-0.00970581
-0.00914038
-0.00871111
-0.0084053
-0.00820689
-0.0080979
-0.00805998
-0.00807562
-0.00812913
-0.00820723
-0.00829922
-0.00839682
-0.00849391
-0.008586
-0.00866982
-0.00874288
-0.00880319
-0.00884906
-0.00887868
-0.00889013
0.000981849
0.00079048
0.000669494
0.000577478
0.000492261
0.000406375
0.000312464
0.000203526
7.35329e-05
-8.30438e-05
-0.000271665
-0.000497996
-0.000768071
-0.00108834
-0.00146561
-0.00190691
-0.00241926
-0.00300944
-0.00368364
-0.00444723
-0.0053044
-0.00625794
-0.00730897
-0.00845683
-0.00969893
-0.0110307
-0.0124458
-0.0139358
-0.015491
-0.0170999
-0.0187502
-0.0204285
-0.0221212
-0.0238143
-0.025494
-0.027147
-0.0287605
-0.0303228
-0.031823
-0.0332515
-0.0345996
-0.0358599
-0.0370261
-0.038093
-0.0390561
-0.0399121
-0.0406583
-0.0412926
-0.0418137
-0.0422207
-0.0425129
-0.0426901
-0.0427523
-0.0426998
-0.0425329
-0.0422522
-0.0418582
-0.0413516
-0.0407333
-0.0400042
-0.0391655
-0.0382188
-0.0371661
-0.0360099
-0.0347538
-0.0334023
-0.0319616
-0.0304394
-0.0288456
-0.0271923
-0.0254945
-0.0237696
-0.0220382
-0.0203228
-0.0186482
-0.0170399
-0.0155236
-0.0141232
-0.0128595
-0.0117489
-0.0108015
-0.0100211
-0.00940423
-0.00894111
-0.00861646
-0.0084112
-0.00830428
-0.00827445
-0.00830173
-0.0083685
-0.00846001
-0.00856449
-0.00867295
-0.00877866
-0.00887668
-0.00896334
-0.00903579
-0.00909178
-0.00912921
-0.00914639
0.0008863
0.000680753
0.00055197
0.000454366
0.000363187
0.000269771
0.00016573
4.31621e-05
-0.000104754
-0.000284293
-0.000501664
-0.000763302
-0.00107602
-0.00144701
-0.0018838
-0.002394
-0.0029851
-0.00366412
-0.00443732
-0.00530986
-0.00628546
-0.00736617
-0.00855213
-0.00984144
-0.0112301
-0.0127119
-0.0142786
-0.0159204
-0.0176254
-0.0193806
-0.0211721
-0.0229851
-0.0248049
-0.0266165
-0.0284056
-0.0301586
-0.0318627
-0.0335063
-0.0350791
-0.0365719
-0.0379768
-0.0392872
-0.0404976
-0.0416035
-0.0426016
-0.043489
-0.0442638
-0.0449247
-0.0454708
-0.0459016
-0.046217
-0.046417
-0.0465018
-0.0464719
-0.0463275
-0.046069
-0.045697
-0.0452117
-0.0446134
-0.0439025
-0.0430795
-0.0421447
-0.0410989
-0.0399432
-0.0386793
-0.0373098
-0.0358383
-0.0342702
-0.0326126
-0.0308752
-0.0290704
-0.0272138
-0.0253242
-0.0234241
-0.021539
-0.019697
-0.0179275
-0.0162603
-0.0147233
-0.0133408
-0.0121316
-0.0111074
-0.0102719
-0.00962012
-0.00913975
-0.0088121
-0.00861441
-0.00852199
-0.0085104
-0.0085571
-0.00864259
-0.00875081
-0.00886918
-0.00898816
-0.0091007
-0.0092016
-0.009287
-0.00935389
-0.00939988
-0.00942347
0.000745302
0.000526479
0.00039026
0.000286992
0.000189351
8.74491e-05
-2.81443e-05
-0.00016625
-0.000334496
-0.000539929
-0.000789537
-0.00109054
-0.00145054
-0.00187747
-0.00237951
-0.00296481
-0.0036412
-0.00441585
-0.00529488
-0.00628306
-0.00738344
-0.00859709
-0.00992293
-0.0113576
-0.0128954
-0.0145283
-0.0162463
-0.0180374
-0.0198882
-0.0217838
-0.0237088
-0.0256473
-0.0275834
-0.0295017
-0.0313874
-0.0332269
-0.0350078
-0.0367188
-0.0383503
-0.0398939
-0.0413426
-0.0426907
-0.0439336
-0.0450678
-0.0460906
-0.0470002
-0.0477952
-0.048475
-0.0490392
-0.0494877
-0.049821
-0.0500392
-0.0501428
-0.0501323
-0.0500081
-0.0497707
-0.0494203
-0.0489572
-0.0483813
-0.0476925
-0.0468907
-0.0459755
-0.0449466
-0.043804
-0.0425478
-0.0411786
-0.0396981
-0.0381089
-0.0364156
-0.0346247
-0.0327456
-0.0307909
-0.028777
-0.0267244
-0.0246579
-0.0226061
-0.0206009
-0.0186763
-0.0168664
-0.0152034
-0.0137154
-0.0124236
-0.0113404
-0.0104686
-0.00980109
-0.00932186
-0.00900794