/*--------------------------------*- C++ -*----------------------------------*\
  =========                 |
  \\      /  F ield         | OpenFOAM: The Open Source CFD Toolbox
   \\    /   O peration     | Website:  https://openfoam.org
    \\  /    A nd           | Version:  9
     \\/     M anipulation  |
\*---------------------------------------------------------------------------*/
FoamFile
{
    format      ascii;
    class       surfaceScalarField;
    location    "2";
    object      phi;
}
// * * * * * * * * * * * * * * * * * * * * * * * * * * * * * * * * * * * * * //

dimensions      [0 3 -1 0 0 0 0];

internalField   nonuniform List<scalar> 
19800
(
1.06404e-10
-1.09304e-10
7.05803e-10
-5.99405e-10
1.65299e-09
-9.47159e-10
2.75671e-09
-1.10374e-09
3.87727e-09
-1.12056e-09
4.92154e-09
-1.04427e-09
5.83104e-09
-9.09499e-10
6.57172e-09
-7.40666e-10
7.12568e-09
-5.53956e-10
7.48509e-09
-3.59421e-10
7.6478e-09
-1.62713e-10
7.61475e-09
3.30571e-11
7.38712e-09
2.27624e-10
6.96553e-09
4.21592e-10
6.34899e-09
6.16546e-10
5.5344e-09
8.14599e-10
4.5163e-09
1.0181e-09
3.28689e-09
1.22942e-09
1.83607e-09
1.45082e-09
1.51753e-10
1.68432e-09
-1.77983e-09
1.93159e-09
-3.97372e-09
2.19389e-09
-6.44569e-09
2.47197e-09
-9.2117e-09
2.76601e-09
-1.22873e-08
3.0756e-09
-1.56869e-08
3.39961e-09
-1.94232e-08
3.73625e-09
-2.35061e-08
4.08293e-09
-2.79424e-08
4.43634e-09
-3.27348e-08
4.79236e-09
-3.78809e-08
5.14608e-09
-4.33727e-08
5.49184e-09
-4.9196e-08
5.82325e-09
-5.53292e-08
6.13323e-09
-6.17433e-08
6.41413e-09
-6.84011e-08
6.65779e-09
-7.52569e-08
6.85572e-09
-8.22561e-08
6.99924e-09
-8.93358e-08
7.07969e-09
-9.64244e-08
7.0886e-09
-1.03442e-07
7.01796e-09
-1.10303e-07
6.86048e-09
-1.16913e-07
6.6098e-09
-1.23173e-07
6.26076e-09
-1.28983e-07
5.80968e-09
-1.34238e-07
5.25458e-09
-1.38833e-07
4.59543e-09
-1.42667e-07
3.83433e-09
-1.45643e-07
2.97583e-09
-1.47671e-07
2.02746e-09
-1.4867e-07
9.99776e-10
-1.48567e-07
-1.03276e-10
-1.47309e-07
-1.25811e-09
-1.44858e-07
-2.45121e-09
-1.41194e-07
-3.66395e-09
-1.36319e-07
-4.87536e-09
-1.30255e-07
-6.0633e-09
-1.23051e-07
-7.20464e-09
-1.14775e-07
-8.27583e-09
-1.05521e-07
-9.25356e-09
-9.54057e-08
-1.01155e-08
-8.45647e-08
-1.08411e-08
-7.31525e-08
-1.14122e-08
-6.13384e-08
-1.1814e-08
-4.93027e-08
-1.20357e-08
-3.72319e-08
-1.20709e-08
-2.53138e-08
-1.19181e-08
-1.37326e-08
-1.15811e-08
-2.66348e-09
-1.10692e-08
7.73326e-09
-1.03967e-08
1.73146e-08
-9.58138e-09
2.59608e-08
-8.64616e-09
3.35775e-08
-7.6167e-09
4.0098e-08
-6.52048e-09
4.54839e-08
-5.38587e-09
4.97249e-08
-4.24103e-09
5.28376e-08
-3.11268e-09
5.48628e-08
-2.02519e-09
5.58625e-08
-9.99696e-10
5.5916e-08
-5.35373e-11
5.51158e-08
8.0019e-10
5.3563e-08
1.55278e-09
5.13633e-08
2.19979e-09
4.86224e-08
2.7408e-09
4.54436e-08
3.17889e-09
4.19235e-08
3.52004e-09
3.81512e-08
3.77237e-09
3.4206e-08
3.94517e-09
3.01581e-08
4.04785e-09
2.60695e-08
4.08864e-09
2.19963e-08
4.07316e-09
1.79937e-08
4.00266e-09
1.41216e-08
3.87207e-09
1.04536e-08
3.66798e-09
7.0869e-09
3.36673e-09
4.15267e-09
2.93423e-09
1.82151e-09
2.33116e-09
2.91405e-10
1.5301e-09
-2.79149e-10
5.70553e-10
-2.7915e-10
6.01148e-10
-7.10453e-10
2.12471e-09
-2.1229e-09
4.22871e-09
-3.05117e-09
6.59519e-09
-3.47019e-09
8.9609e-09
-3.48628e-09
1.1128e-08
-3.21134e-09
1.29574e-08
-2.73895e-09
1.43573e-08
-2.14051e-09
1.527e-08
-1.46667e-09
1.56618e-08
-7.51192e-10
1.55114e-08
-1.23601e-11
1.48108e-08
7.33701e-10
1.35495e-08
1.48892e-09
1.17191e-08
2.25193e-09
9.30842e-09
3.02728e-09
6.30193e-09
3.82109e-09
2.67964e-09
4.6404e-09
-1.5833e-09
5.49235e-09
-6.51612e-09
6.38365e-09
-1.21519e-08
7.32008e-09
-1.85264e-08
8.3061e-09
-2.5677e-08
9.34451e-09
-3.36412e-08
1.04362e-08
-4.2455e-08
1.15798e-08
-5.21511e-08
1.27717e-08
-6.27569e-08
1.40055e-08
-7.42929e-08
1.52722e-08
-8.67701e-08
1.65601e-08
-1.00188e-07
1.78547e-08
-1.14535e-07
1.91385e-08
-1.2978e-07
2.03915e-08
-1.45879e-07
2.15912e-08
-1.62769e-07
2.27127e-08
-1.80365e-07
2.37293e-08
-1.98563e-07
2.46128e-08
-2.17239e-07
2.53339e-08
-2.36247e-07
2.58629e-08
-2.55418e-07
2.61706e-08
-2.74567e-07
2.62286e-08
-2.93489e-07
2.60105e-08
-3.11963e-07
2.54922e-08
-3.29756e-07
2.46534e-08
-3.46624e-07
2.34777e-08
-3.62317e-07
2.1954e-08
-3.76584e-07
2.00764e-08
-3.89175e-07
1.78458e-08
-3.99849e-07
1.52694e-08
-4.08376e-07
1.23617e-08
-4.14545e-07
9.14497e-09
-4.18168e-07
5.64991e-09
-4.19087e-07
1.91888e-09
-4.17172e-07
-2.01842e-09
-4.12322e-07
-6.1084e-09
-4.04491e-07
-1.02817e-08
-3.93674e-07
-1.44809e-08
-3.79911e-07
-1.86388e-08
-3.63289e-07
-2.26847e-08
-3.43948e-07
-2.65458e-08
-3.22075e-07
-3.01494e-08
-2.97904e-07
-3.34242e-08
-2.71717e-07
-3.63026e-08
-2.43835e-07
-3.87227e-08
-2.14617e-07
-4.06304e-08
-1.8445e-07
-4.19814e-08
-1.53742e-07
-4.2743e-08
-1.22918e-07
-4.28958e-08
-9.24009e-08
-4.24347e-08
-6.26119e-08
-4.13702e-08
-3.39531e-08
-3.97279e-08
-6.80085e-09
-3.7549e-08
1.85063e-08
-3.48885e-08
4.16727e-08
-3.18126e-08
6.24554e-08
-2.83994e-08
8.06682e-08
-2.47333e-08
9.61856e-08
-2.09032e-08
1.08943e-07
-1.69988e-08
1.18938e-07
-1.31072e-08
1.26223e-07
-9.30995e-09
1.30903e-07
-5.68035e-09
1.33131e-07
-2.28089e-09
1.33093e-07
8.38043e-10
1.31006e-07
3.6398e-09
1.27105e-07
6.10084e-09
1.21635e-07
8.21086e-09
1.14842e-07
9.97139e-09
1.06968e-07
1.13941e-08
9.82419e-08
1.24986e-08
8.88781e-08
1.3309e-08
7.90752e-08
1.38508e-08
6.90172e-08
1.41466e-08
5.88789e-08
1.42115e-08
4.88338e-08
1.40478e-08
3.90655e-08
1.36403e-08
2.97823e-08
1.29512e-08
2.12302e-08
1.19188e-08
1.37028e-08
1.04616e-08
7.53537e-09
8.49857e-09
3.07136e-09
5.99411e-09
5.86596e-10
3.05532e-09
3.07446e-10
9.58222e-10
-1.66865e-09
3.06887e-09
-4.23359e-09
5.82087e-09
-5.80316e-09
8.8087e-09
-6.45801e-09
1.17039e-08
-6.38153e-09
1.42532e-08
-5.76059e-09
1.62702e-08
-4.75591e-09
1.76235e-08
-3.49383e-09
1.82237e-08
-2.06684e-09
1.80106e-08
-5.38081e-10
1.69454e-08
1.05282e-09
1.49958e-08
2.6833e-09
1.21387e-08
4.346e-09
8.34915e-09
6.0415e-09
3.5996e-09
7.77683e-09
-2.14203e-09
9.56272e-09
-8.91325e-09
1.14116e-08
-1.6757e-08
1.33361e-08
-2.5721e-08
1.53477e-08
-3.58566e-08
1.74557e-08
-4.72171e-08
1.96665e-08
-5.98555e-08
2.1983e-08
-7.38227e-08
2.44033e-08
-8.9164e-08
2.69211e-08
-1.05917e-07
2.95246e-08
-1.24108e-07
3.21964e-08
-1.43749e-07
3.49132e-08
-1.64835e-07
3.76462e-08
-1.8734e-07
4.03603e-08
-2.11217e-07
4.30152e-08
-2.36391e-07
4.55652e-08
-2.6276e-07
4.79599e-08
-2.90192e-07
5.01453e-08
-3.18527e-07
5.20642e-08
-3.47572e-07
5.36577e-08
-3.77105e-07
5.48662e-08
-4.06873e-07
5.5631e-08
-4.36598e-07
5.58958e-08
-4.65977e-07
5.5608e-08
-4.94687e-07
5.47206e-08
-5.22389e-07
5.31937e-08
-5.48731e-07
5.09954e-08
-5.73357e-07
4.81042e-08
-5.95912e-07
4.45089e-08
-6.16046e-07
4.02105e-08
-6.33423e-07
3.52227e-08
-6.47726e-07
2.95722e-08
-6.58664e-07
2.32993e-08
-6.65977e-07
1.64578e-08
-6.69442e-07
9.11538e-09
-6.68895e-07
1.37225e-09
-6.64173e-07
-6.74047e-09
-6.55216e-07
-1.50657e-08
-6.41995e-07
-2.35025e-08
-6.24544e-07
-3.19322e-08
-6.02955e-07
-4.02276e-08
-5.77383e-07
-4.82572e-08
-5.48041e-07
-5.58873e-08
-5.15205e-07
-6.29851e-08
-4.79208e-07
-6.94218e-08
-4.40435e-07
-7.50757e-08
-3.99322e-07
-7.98355e-08
-3.56348e-07
-8.3604e-08
-3.12029e-07
-8.63008e-08
-2.66906e-07
-8.78662e-08
-2.21538e-07
-8.82634e-08
-1.76492e-07
-8.7481e-08
-1.32328e-07
-8.55342e-08
-8.95898e-08
-8.24658e-08
-4.8793e-08
-7.83458e-08
-1.04118e-08
-7.32697e-08
2.5132e-08
-6.73564e-08
5.74765e-08
-6.07439e-08
8.63295e-08
-5.35864e-08
1.11474e-07
-4.60477e-08
1.32772e-07
-3.82964e-08
1.50163e-07
-3.04989e-08
1.63668e-07
-2.28148e-08
1.73379e-07
-1.53907e-08
1.79453e-07
-8.35581e-09
1.8211e-07
-1.81853e-09
1.81613e-07
4.13681e-09
1.78263e-07
9.45078e-09
1.72386e-07
1.40882e-08
1.64319e-07
1.80376e-08
1.54406e-07
2.13077e-08
1.42981e-07
2.39236e-08
1.30368e-07
2.59214e-08
1.16878e-07
2.73414e-08
1.02804e-07
2.82203e-08
8.84325e-08
2.8583e-08
7.40472e-08
2.84331e-08
5.99429e-08
2.77446e-08
4.64386e-08
2.64556e-08
3.389e-08
2.44674e-08
2.26962e-08
2.16553e-08
1.32933e-08
1.79016e-08
6.12631e-09
1.31611e-08
1.59365e-09
7.58798e-09
1.90109e-09
1.122e-09
-2.79066e-09
3.48794e-09
-6.59953e-09
6.45357e-09
-8.76879e-09
9.54424e-09
-9.54869e-09
1.23912e-08
-9.22849e-09
1.47118e-08
-8.08121e-09
1.62946e-08
-6.33866e-09
1.69844e-08
-4.18368e-09
1.66692e-08
-1.75162e-09
1.52674e-08
8.63701e-10
1.27177e-08
3.6025e-09
8.96956e-09
6.43147e-09
3.97828e-09
9.33728e-09
-2.30069e-09
1.23205e-08
-9.91465e-09
1.53908e-08
-1.89153e-08
1.85634e-08
-2.93594e-08
2.18557e-08
-4.13083e-08
2.5285e-08
-5.4827e-08
2.88664e-08
-6.99821e-08
3.26108e-08
-8.68397e-08
3.65241e-08
-1.05462e-07
4.06053e-08
-1.25904e-07
4.48456e-08
-1.48211e-07
4.92279e-08
-1.72412e-07
5.37257e-08
-1.98519e-07
5.8303e-08
-2.26519e-07
6.29139e-08
-2.56376e-07
6.75029e-08
-2.88021e-07
7.20048e-08
-3.21352e-07
7.63462e-08
-3.56232e-07
8.04457e-08
-3.92488e-07
8.42156e-08
-4.29906e-07
8.75636e-08
-4.68236e-07
9.03943e-08
-5.0719e-07
9.26117e-08
-5.46446e-07
9.41216e-08
-5.85648e-07
9.48336e-08
-6.24417e-07
9.46643e-08
-6.62347e-07
9.35388e-08
-6.99021e-07
9.13941e-08
-7.34007e-07
8.81803e-08
-7.66875e-07
8.38633e-08
-7.97197e-07
7.84254e-08
-8.24555e-07
7.18674e-08
-8.48553e-07
6.42089e-08
-8.68819e-07
5.54888e-08
-8.85013e-07
4.57658e-08
-8.96832e-07
3.51178e-08
-9.04016e-07
2.36419e-08
-9.06353e-07
1.14528e-08
-9.03692e-07
-1.28907e-09
-8.95907e-07
-1.45253e-08
-8.82968e-07
-2.80052e-08
-8.64885e-07
-4.15853e-08
-8.41735e-07
-5.50824e-08
-8.13656e-07
-6.83059e-08
-7.80853e-07
-8.10608e-08
-7.43589e-07
-9.31506e-08
-7.02193e-07
-1.04381e-07
-6.57051e-07
-1.14564e-07
-6.08605e-07
-1.23522e-07
-5.57349e-07
-1.31092e-07
-5.03822e-07
-1.37131e-07
-4.48604e-07
-1.41519e-07
-3.92303e-07
-1.44167e-07
-3.35552e-07
-1.45014e-07
-2.78993e-07
-1.4404e-07
-2.2327e-07
-1.41258e-07
-1.69012e-07
-1.36724e-07
-1.16826e-07
-1.30532e-07
-6.72799e-08
-1.22816e-07
-2.08936e-08
-1.13743e-07
2.18753e-08
-1.03513e-07
6.06395e-08
-9.23505e-08
9.50899e-08
-8.04981e-08
1.25004e-07
-6.82104e-08
1.50247e-07
-5.5742e-08
1.70774e-07
-4.33417e-08
1.86627e-07
-3.12438e-08
1.97931e-07
-1.96598e-08
2.04885e-07
-8.77271e-09
2.07755e-07
1.26738e-09
2.06857e-07
1.03483e-08
2.02552e-07
1.83929e-08
1.95229e-07
2.53612e-08
1.85291e-07
3.12456e-08
1.73149e-07
3.60655e-08
1.59211e-07
3.98596e-08
1.43876e-07
4.26764e-08
1.27534e-07
4.45624e-08
1.10567e-07
4.55499e-08
9.33563e-08
4.56435e-08
7.62924e-08
4.48085e-08
5.97854e-08
4.29626e-08
4.42773e-08
3.99755e-08
3.02496e-08
3.56831e-08
1.82244e-08
2.99267e-08
8.76071e-09
2.26248e-08
2.45338e-09
1.38953e-08
4.35447e-09
1.13484e-09
-3.92548e-09
3.45619e-09
-8.92088e-09
6.24515e-09
-1.15578e-08
8.98384e-09
-1.22874e-08
1.12817e-08
-1.15263e-08
1.28434e-08
-9.64298e-09
1.34467e-08
-6.94192e-09
1.2924e-08
-3.66098e-09
1.11482e-08
2.42223e-11
8.0202e-09
3.99168e-09
3.4589e-09
8.16379e-09
-2.60674e-09
1.24971e-08
-1.02435e-08
1.69741e-08
-1.95181e-08
2.15951e-08
-3.04996e-08
2.63723e-08
-4.3261e-08
3.13247e-08
-5.78785e-08
3.64732e-08
-7.44314e-08
4.18379e-08
-9.29997e-08
4.74346e-08
-1.13661e-07
5.32726e-08
-1.3649e-07
5.93524e-08
-1.61548e-07
6.56639e-08
-1.88888e-07
7.21851e-08
-2.18541e-07
7.88808e-08
-2.50516e-07
8.57014e-08
-2.84797e-07
9.25833e-08
-3.21331e-07
9.94484e-08
-3.60033e-07
1.06205e-07
-4.00775e-07
1.12747e-07
-4.43389e-07
1.1896e-07
-4.87661e-07
1.24717e-07
-5.33332e-07
1.29887e-07
-5.801e-07
1.34332e-07
-6.27623e-07
1.37917e-07
-6.75517e-07
1.40506e-07
-7.23367e-07
1.41971e-07
-7.70728e-07
1.42195e-07
-8.17135e-07
1.41071e-07
-8.62108e-07
1.38512e-07
-9.05161e-07
1.34448e-07
-9.45811e-07
1.2883e-07
-9.83581e-07
1.21634e-07
-1.01801e-06
1.12859e-07
-1.04868e-06
1.0253e-07
-1.07517e-06
9.0697e-08
-1.09711e-06
7.74349e-08
-1.11419e-06
6.28436e-08
-1.12612e-06
4.70463e-08
-1.13267e-06
3.01891e-08
-1.13365e-06
1.24426e-08
-1.12894e-06
-6.00615e-09
-1.11848e-06
-2.49871e-08
-1.10224e-06
-4.42417e-08
-1.08028e-06
-6.35488e-08
-1.05269e-06
-8.2667e-08
-1.01965e-06
-1.01346e-07
-9.81382e-07
-1.1933e-07
-9.38169e-07
-1.36363e-07
-8.90359e-07
-1.52192e-07
-8.38353e-07
-1.6657e-07
-7.82611e-07
-1.79264e-07
-7.23643e-07
-1.90059e-07
-6.6201e-07
-1.98764e-07
-5.98311e-07
-2.05217e-07
-5.33187e-07
-2.09292e-07
-4.673e-07
-2.10901e-07
-4.01337e-07
-2.10003e-07
-3.35986e-07
-2.06608e-07
-2.71937e-07
-2.00773e-07
-2.09859e-07
-1.9261e-07
-1.50394e-07
-1.82281e-07
-9.41393e-08
-1.69997e-07
-4.16381e-08
-1.56014e-07
6.63387e-09
-1.40622e-07
5.02794e-08
-1.24144e-07
8.89848e-08
-1.06916e-07
1.22529e-07
-8.92867e-08
1.50788e-07
-7.16005e-08
1.73731e-07
-5.4187e-08
1.91423e-07
-3.73512e-08
2.04014e-07
-2.1364e-08
2.11737e-07
-6.45547e-09
2.14894e-07
7.19164e-09
2.13842e-07
1.94441e-08
2.08988e-07
3.02152e-08
2.00768e-07
3.94657e-08
1.89639e-07
4.71948e-08
1.76067e-07
5.34314e-08
1.60522e-07
5.8222e-08
1.43469e-07
6.16153e-08
1.25373e-07
6.36462e-08
1.06697e-07
6.43187e-08
8.79153e-08
6.35906e-08
6.95156e-08
6.13623e-08
5.20155e-08
5.74755e-08
3.5972e-08
5.17267e-08
2.19951e-08
4.39036e-08
1.07686e-08
3.38513e-08
3.0907e-09
2.15732e-08
7.44517e-09
1.03306e-09
-4.95854e-09
3.0522e-09
-1.094e-08
5.31782e-09
-1.38234e-08
7.299e-09
-1.42685e-08
8.60227e-09
-1.28296e-08
8.93344e-09
-9.97415e-09
8.07002e-09
-6.0785e-09
5.84039e-09
-1.43134e-09
2.10837e-09
3.75624e-09
-3.23915e-09
9.3392e-09
-1.03011e-08
1.52258e-08
-1.91693e-08
2.13653e-08
-2.99329e-08
2.77377e-08
-4.26817e-08
3.43439e-08
-5.75074e-08
4.11981e-08
-7.45041e-08
4.83213e-08
-9.3767e-08
5.57362e-08
-1.15391e-07
6.34619e-08
-1.39468e-07
7.15112e-08
-1.66081e-07
7.98861e-08
-1.95305e-07
8.8576e-08
-2.27195e-07
9.75545e-08
-2.61788e-07
1.06778e-07
-2.99092e-07
1.16185e-07
-3.39082e-07
1.25692e-07
-3.81698e-07
1.35199e-07
-4.26835e-07
1.44585e-07
-4.74344e-07
1.53713e-07
-5.24026e-07
1.62429e-07
-5.75633e-07
1.70567e-07
-6.28866e-07
1.77951e-07
-6.83381e-07
1.84401e-07
-7.38784e-07
1.89735e-07
-7.94643e-07
1.93777e-07
-8.50494e-07
1.96356e-07
-9.05841e-07
1.97319e-07
-9.60173e-07
1.96527e-07
-1.01297e-06
1.93865e-07
-1.0637e-06
1.89243e-07
-1.11185e-06
1.82597e-07
-1.15691e-06
1.73895e-07
-1.19841e-06
1.63134e-07
-1.2359e-06
1.50341e-07
-1.26894e-06
1.35575e-07
-1.29717e-06
1.18926e-07
-1.32025e-06
1.0051e-07
-1.33787e-06
8.04729e-08
-1.34981e-06
5.89839e-08
-1.35586e-06
3.62382e-08
-1.35588e-06
1.24579e-08
-1.34975e-06
-1.21338e-08
-1.33745e-06
-3.7288e-08
-1.31897e-06
-6.27159e-08
-1.29438e-06
-8.81381e-08
-1.26379e-06
-1.13259e-07
-1.22736e-06
-1.37775e-07
-1.18532e-06
-1.61374e-07
-1.13794e-06
-1.83744e-07
-1.08555e-06
-2.04576e-07
-1.02856e-06
-2.23566e-07
-9.67396e-07
-2.40426e-07
-9.02569e-07
-2.54887e-07
-8.34628e-07
-2.66705e-07
-7.64176e-07
-2.7567e-07
-6.91854e-07
-2.81613e-07
-6.18343e-07
-2.84412e-07
-5.44348e-07
-2.83998e-07
-4.70594e-07
-2.80362e-07
-3.97812e-07
-2.73555e-07
-3.26726e-07
-2.63696e-07
-2.58038e-07
-2.50968e-07
-1.92421e-07
-2.35615e-07
-1.30496e-07
-2.17939e-07
-7.28253e-08
-1.98293e-07
-1.98972e-08
-1.77072e-07
2.78843e-08
-1.54697e-07
7.02067e-08
-1.31609e-07
1.06855e-07
-1.08249e-07
1.37717e-07
-8.5049e-08
1.62781e-07
-6.24148e-08
1.82132e-07
-4.07156e-08
1.9595e-07
-2.02732e-08
2.04499e-07
-1.35701e-09
2.08111e-07
1.58319e-08
2.07185e-07
3.11412e-08
2.02166e-07
4.44851e-08
1.93533e-07
5.5827e-08
1.81793e-07
6.5172e-08
1.67463e-07
7.2552e-08
1.5107e-07
7.80086e-08
1.33143e-07
8.15723e-08
1.14219e-07
8.32429e-08
9.48407e-08
8.29692e-08
7.55676e-08
8.06354e-08
5.69877e-08
7.60554e-08
3.97326e-08
6.89818e-08
2.45014e-08
5.91348e-08
1.20992e-08
4.62534e-08
3.5018e-09
3.01706e-08
1.0947e-08
8.41402e-10
-5.79996e-09
2.33831e-09
-1.24369e-08
3.77363e-09
-1.52587e-08
4.63326e-09
-1.51282e-08
4.54039e-09
-1.27367e-08
3.21516e-09
-8.64891e-09
4.44425e-10
-3.30776e-09
-3.94059e-09
2.95368e-09
-1.00809e-08
9.8965e-09
-1.81005e-08
1.73588e-08
-2.81149e-08
2.52401e-08
-4.02359e-08
3.34864e-08
-5.45752e-08
4.2077e-08
-7.12455e-08
5.10141e-08
-9.03605e-08
6.03131e-08
-1.12034e-07
6.99952e-08
-1.36379e-07
8.00808e-08
-1.63501e-07
9.05842e-08
-1.93499e-07
1.01509e-07
-2.26456e-07
1.12843e-07
-2.62438e-07
1.24558e-07
-3.01485e-07
1.36601e-07
-3.43605e-07
1.48898e-07
-3.88771e-07
1.61351e-07
-4.36913e-07
1.73833e-07
-4.87912e-07
1.86198e-07
-5.41598e-07
1.98272e-07
-5.97749e-07
2.09864e-07
-6.56086e-07
2.20766e-07
-7.16277e-07
2.30757e-07
-7.77936e-07
2.39611e-07
-8.40633e-07
2.47098e-07
-9.03896e-07
2.52998e-07
-9.67217e-07
2.57098e-07
-1.03007e-06
2.59205e-07
-1.0919e-06
2.59149e-07
-1.15215e-06
2.56785e-07
-1.21029e-06
2.52001e-07
-1.26577e-06
2.4472e-07
-1.31807e-06
2.34898e-07
-1.3667e-06
2.22529e-07
-1.41121e-06
2.07641e-07
-1.45117e-06
1.90301e-07
-1.4862e-06
1.70606e-07
-1.51596e-06
1.48688e-07
-1.54016e-06
1.24705e-07
-1.55853e-06
9.88453e-08
-1.57087e-06
7.13234e-08
-1.57701e-06
4.23765e-08
-1.57682e-06
1.22714e-08
-1.57022e-06
-1.87345e-08
-1.55717e-06
-5.03347e-08
-1.53768e-06
-8.22063e-08
-1.5118e-06
-1.14023e-07
-1.47961e-06
-1.45444e-07
-1.44127e-06
-1.76115e-07
-1.39697e-06
-2.05676e-07
-1.34695e-06
-2.33762e-07
-1.29152e-06
-2.60008e-07
-1.23103e-06
-2.84055e-07
-1.1659e-06
-3.05558e-07
-1.0966e-06
-3.24189e-07
-1.02365e-06
-3.39648e-07
-9.47654e-07
-3.51669e-07
-8.69236e-07
-3.60031e-07
-7.89082e-07
-3.64566e-07
-7.07913e-07
-3.65168e-07
-6.26479e-07
-3.61795e-07
-5.4555e-07
-3.54484e-07
-4.659e-07
-3.43346e-07
-3.88296e-07
-3.28572e-07
-3.1348e-07
-3.10431e-07
-2.42155e-07
-2.89263e-07
-1.74972e-07
-2.65477e-07
-1.12511e-07
-2.39533e-07
-5.52731e-08
-2.11935e-07
-3.66617e-09
-1.83216e-07
4.20029e-08
-1.53918e-07
8.15296e-08
-1.24576e-07
1.14819e-07
-9.57042e-08
1.41883e-07
-6.77793e-08
1.62835e-07
-4.1226e-08
1.77886e-07
-1.64075e-08
1.87335e-07
6.38287e-09
1.91553e-07
2.6923e-08
1.90978e-07
4.50606e-08
1.86096e-07
6.07091e-08
1.77432e-07
7.3835e-08
1.65541e-07
8.44433e-08
1.50993e-07
9.25567e-08
1.34372e-07
9.81934e-08
1.16272e-07
1.01342e-07
9.73008e-08
1.01941e-07
7.80821e-08
9.98541e-08
5.92716e-08
9.48659e-08
4.15738e-08
8.66796e-08
2.57729e-08
7.49357e-08
1.27802e-08
5.92461e-08
3.70632e-09
3.92445e-08
1.46533e-08
5.75535e-10
-6.37548e-09
1.35896e-09
-1.32204e-08
1.68989e-09
-1.55896e-08
1.09888e-09
-1.45372e-08
-7.54959e-10
-1.08829e-08
-4.12375e-09
-5.28011e-09
-9.20232e-09
1.77081e-09
-1.61511e-08
9.9025e-09
-2.51118e-08
1.88572e-08
-3.62174e-08
2.84644e-08
-4.95986e-08
3.86213e-08
-6.53867e-08
4.92745e-08
-8.37151e-08
6.04054e-08
-1.04718e-07
7.20174e-08
-1.28531e-07
8.41258e-08
-1.55285e-07
9.67486e-08
-1.85104e-07
1.099e-07
-2.18102e-07
1.23583e-07
-2.54378e-07
1.37784e-07
-2.94006e-07
1.52472e-07
-3.37034e-07
1.67586e-07
-3.83476e-07
1.83042e-07
-4.33301e-07
1.98723e-07
-4.86433e-07
2.14483e-07
-5.42745e-07
2.30145e-07
-6.02051e-07
2.45503e-07
-6.64106e-07
2.60327e-07
-7.28608e-07
2.74366e-07
-7.95195e-07
2.87353e-07
-8.63451e-07
2.99014e-07
-9.32913e-07
3.09073e-07
-1.00308e-06
3.17261e-07
-1.0734e-06
3.23323e-07
-1.14333e-06
3.27027e-07
-1.21229e-06
3.28168e-07
-1.27972e-06
3.26572e-07
-1.34504e-06
3.22105e-07
-1.40771e-06
3.14671e-07
-1.4672e-06
3.04219e-07
-1.52304e-06
2.90734e-07
-1.57476e-06
2.74247e-07
-1.62194e-06
2.54824e-07
-1.66421e-06
2.3257e-07
-1.70123e-06
2.07623e-07
-1.73269e-06
1.80154e-07
-1.75835e-06
1.5036e-07
-1.77797e-06
1.18467e-07
-1.79137e-06
8.47232e-08
-1.7984e-06
4.94018e-08
-1.79893e-06
1.2804e-08
-1.79288e-06
-2.47826e-08
-1.7802e-06
-6.30103e-08
-1.76089e-06
-1.01526e-07
-1.73494e-06
-1.39966e-07
-1.70244e-06
-1.77948e-07
-1.66348e-06
-2.15077e-07
-1.61821e-06
-2.50946e-07
-1.56683e-06
-2.8514e-07
-1.50959e-06
-3.17243e-07
-1.44681e-06
-3.46838e-07
-1.37885e-06
-3.7352e-07
-1.30614e-06
-3.96898e-07
-1.22918e-06
-4.16608e-07
-1.14853e-06
-4.32321e-07
-1.0648e-06
-4.43756e-07
-9.78685e-07
-4.50685e-07
-8.90902e-07
-4.5295e-07
-8.02229e-07
-4.50468e-07
-7.13472e-07
-4.43241e-07
-6.25457e-07
-4.31362e-07
-5.39013e-07
-4.15016e-07
-4.5496e-07
-3.94484e-07
-3.74086e-07
-3.70137e-07
-2.97135e-07
-3.42427e-07
-2.24788e-07
-3.1188e-07
-1.57646e-07
-2.79077e-07
-9.62193e-08
-2.44642e-07
-4.09174e-08
-2.0922e-07
7.96228e-09
-1.73455e-07
5.02357e-08
-1.37978e-07
8.58338e-08
-1.03377e-07
1.148e-07
-7.01927e-08
1.37287e-07
-3.88939e-08
1.53545e-07
-9.87503e-09
1.63915e-07
1.65528e-08
1.68814e-07
4.0162e-08
1.68724e-07
6.07987e-08
1.64181e-07
7.83783e-08
1.55759e-07
9.28652e-08
1.44063e-07
1.04252e-07
1.29721e-07
1.12536e-07
1.13377e-07
1.17686e-07
9.5694e-08
1.19624e-07
7.73572e-08
1.18191e-07
5.90859e-08
1.13137e-07
4.16534e-08
1.04112e-07
2.59198e-08
9.06693e-08
1.28799e-08
7.22861e-08
3.73263e-09
4.83918e-08
1.83859e-08
2.44576e-10
-6.62006e-09
1.42649e-10
-1.31184e-08
-8.77969e-10
-1.4569e-08
-3.21918e-09
-1.2196e-08
-7.16679e-09
-6.93528e-09
-1.29321e-08
4.85218e-10
-2.0683e-08
9.52168e-09
-3.05663e-08
1.97858e-08
-4.27213e-08
3.10122e-08
-5.72885e-08
4.30316e-08
-7.44126e-08
5.57454e-08
-9.42437e-08
6.91056e-08
-1.16936e-07
8.30973e-08
-1.42643e-07
9.77251e-08
-1.71519e-07
1.13001e-07
-2.03707e-07
1.28937e-07
-2.39341e-07
1.45533e-07
-2.78534e-07
1.62776e-07
-3.21376e-07
1.80627e-07
-3.67925e-07
1.99021e-07
-4.18201e-07
2.17862e-07
-4.72178e-07
2.37019e-07
-5.29777e-07
2.56323e-07
-5.90864e-07
2.7557e-07
-6.55242e-07
2.94524e-07
-7.22653e-07
3.12914e-07
-7.92772e-07
3.30446e-07
-8.65215e-07
3.46809e-07
-9.39542e-07
3.6168e-07
-1.01526e-06
3.74735e-07
-1.09185e-06
3.85657e-07
-1.16874e-06
3.94148e-07
-1.24535e-06
3.99933e-07
-1.32109e-06
4.02773e-07
-1.39539e-06
4.02464e-07
-1.46766e-06
3.98848e-07
-1.53737e-06
3.91812e-07
-1.60399e-06
3.81291e-07
-1.66704e-06
3.67264e-07
-1.72606e-06
3.49758e-07
-1.78065e-06
3.28839e-07
-1.83044e-06
3.04614e-07
-1.8751e-06
2.77224e-07
-1.91432e-06
2.46845e-07
-1.94784e-06
2.1368e-07
-1.97544e-06
1.77958e-07
-1.99691e-06
1.39933e-07
-2.01207e-06
9.98814e-08
-2.02077e-06
5.81016e-08
-2.02288e-06
1.49189e-08
-2.01831e-06
-2.93511e-08
-2.00699e-06
-7.43359e-08
-1.98886e-06
-1.19656e-07
-1.96391e-06
-1.64916e-07
-1.93215e-06
-2.09702e-07
-1.89365e-06
-2.53582e-07
-1.84849e-06
-2.96106e-07
-1.79681e-06
-3.36814e-07
-1.73882e-06
-3.75236e-07
-1.67476e-06
-4.10901e-07
-1.60494e-06
-4.43339e-07
-1.52974e-06
-4.72095e-07
-1.44961e-06
-4.96734e-07
-1.36508e-06
-5.16856e-07
-1.27673e-06
-5.32106e-07
-1.18523e-06
-5.42186e-07
-1.09131e-06
-5.4687e-07
-9.9576e-07
-5.46018e-07
-8.99418e-07
-5.39582e-07
-8.03162e-07
-5.27618e-07
-7.07885e-07
-5.10293e-07
-6.14487e-07
-4.87882e-07
-5.2385e-07
-4.60774e-07
-4.3682e-07
-4.29458e-07
-3.54186e-07
-3.94514e-07
-2.76662e-07
-3.56601e-07
-2.04871e-07
-3.16433e-07
-1.39331e-07
-2.7476e-07
-8.04436e-08
-2.32343e-07
-2.84889e-08
-1.89932e-07
1.63782e-08
-1.48245e-07
5.41264e-08
-1.07941e-07
8.4844e-08
-6.96114e-08
1.0873e-07
-3.37616e-08
1.26092e-07
-8.08938e-10
1.37318e-07
2.89366e-08
1.42881e-07
5.5235e-08
1.4332e-07
7.79398e-08
1.39223e-07
9.69625e-08
1.3122e-07
1.12255e-07
1.19976e-07
1.2378e-07
1.06178e-07
1.31484e-07
9.05399e-08
1.35262e-07
7.38028e-08
1.34928e-07
5.67452e-08
1.30195e-07
4.0203e-08
1.20654e-07
2.50991e-08
1.05773e-07
1.24876e-08
8.48976e-08
3.61229e-09
5.72671e-08
2.19982e-08
-1.47278e-10
-6.47279e-09
-1.2899e-09
-1.19758e-08
-3.89052e-09
-1.19684e-08
-8.25669e-09
-7.82978e-09
-1.46021e-08
-5.89844e-10
-2.30844e-08
8.96747e-09
-3.38374e-08
2.02747e-08
-4.69893e-08
3.29376e-08
-6.26747e-08
4.66977e-08
-8.104e-08
6.13969e-08
-1.02243e-07
7.69487e-08
-1.26452e-07
9.33144e-08
-1.53839e-07
1.10484e-07
-1.84576e-07
1.28463e-07
-2.1883e-07
1.47255e-07
-2.56754e-07
1.66861e-07
-2.98481e-07
1.8726e-07
-3.44118e-07
2.08413e-07
-3.93738e-07
2.30246e-07
-4.4737e-07
2.52654e-07
-5.04997e-07
2.75489e-07
-5.66543e-07
2.98565e-07
-6.31871e-07
3.21651e-07
-7.0078e-07
3.44479e-07
-7.72999e-07
3.66743e-07
-8.48191e-07
3.88106e-07
-9.25955e-07
4.0821e-07
-1.00583e-06
4.26685e-07
-1.08731e-06
4.43158e-07
-1.16984e-06
4.57264e-07
-1.25284e-06
4.6866e-07
-1.33572e-06
4.77028e-07
-1.41788e-06
4.82092e-07
-1.49873e-06
4.83619e-07
-1.57769e-06
4.81424e-07
-1.65421e-06
4.75374e-07
-1.72779e-06
4.65391e-07
-1.79794e-06
4.51443e-07
-1.86423e-06
4.3355e-07
-1.92625e-06
4.11778e-07
-1.98364e-06
3.8623e-07
-2.03608e-06
3.5705e-07
-2.08326e-06
3.24412e-07
-2.12494e-06
2.8852e-07
-2.16086e-06
2.49604e-07
-2.19082e-06
2.07917e-07
-2.21462e-06
1.63736e-07
-2.2321e-06
1.17354e-07
-2.24308e-06
6.9089e-08
-2.24745e-06
1.92802e-08
-2.24507e-06
-3.17311e-08
-2.23584e-06
-8.35596e-08
-2.21969e-06
-1.35804e-07
-2.19656e-06
-1.88047e-07
-2.16642e-06
-2.39847e-07
-2.12926e-06
-2.90739e-07
-2.08513e-06
-3.40239e-07
-2.03409e-06
-3.87845e-07
-1.97629e-06
-4.33039e-07
-1.9119e-06
-4.75293e-07
-1.84116e-06
-5.14076e-07
-1.76439e-06
-5.48864e-07
-1.68198e-06
-5.79148e-07
-1.59439e-06
-6.04447e-07
-1.50217e-06
-6.24324e-07
-1.40596e-06
-6.38397e-07
-1.30647e-06
-6.46358e-07
-1.2045e-06
-6.47989e-07
-1.10091e-06
-6.43173e-07
-9.96619e-07
-6.31911e-07
-8.92584e-07
-6.14327e-07
-7.89788e-07
-5.90678e-07
-6.89212e-07
-5.6135e-07
-5.91814e-07
-5.26856e-07
-4.98505e-07
-4.87824e-07
-4.10126e-07
-4.44981e-07
-3.27427e-07
-3.99132e-07
-2.5105e-07
-3.51136e-07
-1.81516e-07
-3.01877e-07
-1.1921e-07
-2.52238e-07
-6.43849e-08
-2.0307e-07
-1.71526e-08
-1.55173e-07
2.25067e-08
-1.09271e-07
5.47398e-08
-6.59947e-08
7.98066e-08
-2.58757e-08
9.80795e-08
1.06637e-08
1.10014e-07
4.33006e-08
1.16147e-07
7.18071e-08
1.17078e-07
9.60308e-08
1.13461e-07
1.15871e-07
1.05991e-07
1.31251e-07
9.53948e-08
1.4208e-07
8.24331e-08
1.48223e-07
6.7898e-08
1.49463e-07
5.26227e-08
1.4547e-07
3.74971e-08
1.3578e-07
2.34937e-08
1.19777e-07
1.17031e-08
9.66882e-08
3.37816e-09
6.5592e-08
2.53764e-08
-5.9653e-10
-5.87625e-09
-2.92875e-09
-9.64358e-09
-7.31957e-09
-7.57755e-09
-1.39629e-08
-1.18649e-09
-2.29818e-08
8.42907e-09
-3.4471e-08
2.04567e-08
-4.85216e-08
3.43253e-08
-6.52394e-08
4.96554e-08
-8.47524e-08
6.62108e-08
-1.07212e-07
8.38563e-08
-1.32788e-07
1.02525e-07
-1.61665e-07
1.22191e-07
-1.94031e-07
1.4285e-07
-2.30072e-07
1.64504e-07
-2.69963e-07
1.87147e-07
-3.1386e-07
2.10757e-07
-3.61889e-07
2.3529e-07
-4.14141e-07
2.60665e-07
-4.70662e-07
2.86767e-07
-5.31444e-07
3.13436e-07
-5.96421e-07
3.40465e-07
-6.65458e-07
3.67602e-07
-7.38354e-07
3.94547e-07
-8.14834e-07
4.20959e-07
-8.94551e-07
4.4646e-07
-9.77093e-07
4.70648e-07
-1.06199e-06
4.93103e-07
-1.14871e-06
5.13404e-07
-1.23669e-06
5.31138e-07
-1.32533e-06
5.45912e-07
-1.41404e-06
5.57369e-07
-1.50221e-06
5.65191e-07
-1.58923e-06
5.69113e-07
-1.67453e-06
5.68921e-07
-1.75757e-06
5.64463e-07
-1.83783e-06
5.55639e-07
-1.91485e-06
5.4241e-07
-1.98819e-06
5.24785e-07
-2.05747e-06
5.02823e-07
-2.12231e-06
4.76626e-07
-2.18242e-06
4.46333e-07
-2.23749e-06
4.12119e-07
-2.28726e-06
3.74185e-07
-2.3315e-06
3.32758e-07
-2.36999e-06
2.88091e-07
-2.40252e-06
2.40452e-07
-2.42892e-06
1.90134e-07
-2.44901e-06
1.37445e-07
-2.46263e-06
8.27118e-08
-2.46964e-06
2.62848e-08
-2.46989e-06
-3.14759e-08
-2.46327e-06
-9.01789e-08
-2.44967e-06
-1.49409e-07
-2.42898e-06
-2.08733e-07
-2.40114e-06
-2.67689e-07
-2.36609e-06
-3.2579e-07
-2.3238e-06
-3.82523e-07
-2.2743e-06
-4.3735e-07
-2.21763e-06
-4.89711e-07
-2.15389e-06
-5.39028e-07
-2.08326e-06
-5.84713e-07
-2.00595e-06
-6.26171e-07
-1.92228e-06
-6.62817e-07
-1.83264e-06
-6.94086e-07
-1.73752e-06
-7.19447e-07
-1.63749e-06
-7.38423e-07
-1.53324e-06
-7.50608e-07
-1.42554e-06
-7.55686e-07
-1.31527e-06
-7.5345e-07
-1.20336e-06
-7.43818e-07
-1.09084e-06
-7.26851e-07
-9.78756e-07
-7.02759e-07
-8.68202e-07
-6.71904e-07
-7.60252e-07
-6.34805e-07
-6.55954e-07
-5.92122e-07
-5.56292e-07
-5.44642e-07
-4.62167e-07
-4.93257e-07
-3.74366e-07
-4.38938e-07
-2.93546e-07
-3.82697e-07
-2.20222e-07
-3.25562e-07
-1.54755e-07
-2.68537e-07
-9.73546e-08
-2.12574e-07
-4.80765e-08
-1.58549e-07
-6.83412e-09
-1.07237e-07
2.65921e-08
-5.9302e-08
5.25435e-08
-1.52877e-08
7.14652e-08
2.43789e-08
8.38931e-08
5.93792e-08
9.04391e-08
8.94848e-08
9.17774e-08
1.14533e-07
8.86328e-08
1.34396e-07
8.17721e-08
1.48941e-07
7.19989e-08
1.57997e-07
6.01535e-08
1.61308e-07
4.71183e-08
1.58505e-07
3.38297e-08
1.49069e-07
2.12974e-08
1.32309e-07
1.06299e-08
1.07356e-07
3.06315e-09
7.31587e-08
2.84395e-08
-1.10256e-09
-4.77369e-09
-4.76367e-09
-5.98247e-09
-1.11411e-08
-1.20015e-09
-2.02915e-08
7.96396e-09
-3.22346e-08
2.03721e-08
-4.69888e-08
3.5211e-08
-6.45974e-08
5.19338e-08
-8.51405e-08
7.01986e-08
-1.08738e-07
8.98083e-08
-1.35545e-07
1.10663e-07
-1.65743e-07
1.32723e-07
-1.99529e-07
1.55977e-07
-2.37106e-07
1.80427e-07
-2.78668e-07
2.06066e-07
-3.24393e-07
2.32872e-07
-3.74431e-07
2.60796e-07
-4.28894e-07
2.89753e-07
-4.87847e-07
3.19618e-07
-5.51298e-07
3.50218e-07
-6.19194e-07
3.81332e-07
-6.91411e-07
4.12682e-07
-7.67751e-07
4.43942e-07
-8.47939e-07
4.74735e-07
-9.31627e-07
5.04647e-07
-1.0184e-06
5.33228e-07
-1.10776e-06
5.60014e-07
-1.19919e-06
5.84531e-07
-1.2921e-06
6.06317e-07
-1.3859e-06
6.24932e-07
-1.47995e-06
6.39971e-07
-1.57366e-06
6.51077e-07
-1.66642e-06
6.57947e-07
-1.75764e-06
6.60337e-07
-1.84679e-06
6.58069e-07
-1.93335e-06
6.51025e-07
-2.01686e-06
6.39147e-07
-2.09689e-06
6.22436e-07
-2.17304e-06
6.00942e-07
-2.24498e-06
5.74762e-07
-2.31239e-06
5.4403e-07
-2.37497e-06
5.08919e-07
-2.43248e-06
4.69627e-07
-2.48468e-06
4.26381e-07
-2.53135e-06
3.79429e-07
-2.57229e-06
3.29037e-07
-2.60733e-06
2.7549e-07
-2.63629e-06
2.19092e-07
-2.65901e-06
1.6016e-07
-2.67532e-06
9.90295e-08
-2.68509e-06
3.60545e-08
-2.68818e-06
-2.83939e-08
-2.68443e-06
-9.39213e-08
-2.67373e-06
-1.60109e-07
-2.65595e-06
-2.26514e-07
-2.63098e-06
-2.92665e-07
-2.5987e-06
-3.58063e-07
-2.55905e-06
-4.22176e-07
-2.51196e-06
-4.8444e-07
-2.45741e-06
-5.44265e-07
-2.3954e-06
-6.0103e-07
-2.32602e-06
-6.54093e-07
-2.2494e-06
-7.02799e-07
-2.16573e-06
-7.46486e-07
-2.07531e-06
-7.84502e-07
-1.97854e-06
-8.16218e-07
-1.87591e-06
-8.41052e-07
-1.76804e-06
-8.58481e-07
-1.65565e-06
-8.68074e-07
-1.53959e-06
-8.69507e-07
-1.42082e-06
-8.62591e-07
-1.30038e-06
-8.47289e-07
-1.17941e-06
-8.23735e-07
-1.05907e-06
-7.92239e-07
-9.40584e-07
-7.53295e-07
-8.25133e-07
-7.07573e-07
-7.13869e-07
-6.55905e-07
-6.07865e-07
-5.99262e-07
-5.0808e-07
-5.38722e-07
-4.15341e-07
-4.75436e-07
-3.30316e-07
-4.10587e-07
-2.53504e-07
-3.45349e-07
-1.85229e-07
-2.80849e-07
-1.25641e-07
-2.18137e-07