/*--------------------------------*- C++ -*----------------------------------*\
  =========                 |
  \\      /  F ield         | OpenFOAM: The Open Source CFD Toolbox
   \\    /   O peration     | Website:  https://openfoam.org
    \\  /    A nd           | Version:  9
     \\/     M anipulation  |
\*---------------------------------------------------------------------------*/
FoamFile
{
    format      ascii;
    class       volVectorField;
    location    "2";
    object      U;
}
// * * * * * * * * * * * * * * * * * * * * * * * * * * * * * * * * * * * * * //

dimensions      [0 1 -1 0 0 0 0];

internalField   nonuniform List<vector> 
10000
(
(-1.4231e-06 1.26772e-06 0)
(3.02954e-05 -1.82799e-05 0)
(0.00011294 -3.29155e-05 0)
(0.000218983 -3.9482e-05 0)
(0.000332461 -4.04778e-05 0)
(0.000442301 -3.81027e-05 0)
(0.000541048 -3.38383e-05 0)
(0.000624197 -2.8639e-05 0)
(0.000689289 -2.30839e-05 0)
(0.000735143 -1.7498e-05 0)
(0.000761329 -1.20475e-05 0)
(0.000767848 -6.82946e-06 0)
(0.00075485 -1.80595e-06 0)
(0.000722442 3.06438e-06 0)
(0.000670623 7.84732e-06 0)
(0.000599198 1.26253e-05 0)
(0.000507742 1.74868e-05 0)
(0.000395592 2.25211e-05 0)
(0.000261847 2.78137e-05 0)
(0.000105391 3.34441e-05 0)
(-7.50768e-05 3.94819e-05 0)
(-0.00028101 4.59857e-05 0)
(-0.00051396 5.30015e-05 0)
(-0.00077553 6.05606e-05 0)
(-0.00106731 6.86778e-05 0)
(-0.00139082 7.73502e-05 0)
(-0.00174742 8.65556e-05 0)
(-0.00213826 9.6251e-05 0)
(-0.00256421 0.000106371 0)
(-0.00302575 0.000116828 0)
(-0.00352291 0.000127508 0)
(-0.00405519 0.000138273 0)
(-0.00462149 0.000148958 0)
(-0.00522003 0.000159374 0)
(-0.00584831 0.000169304 0)
(-0.006503 0.00017851 0)
(-0.00717995 0.000186731 0)
(-0.00787417 0.000193691 0)
(-0.00857977 0.000199099 0)
(-0.00929001 0.000202658 0)
(-0.0099973 0.00020407 0)
(-0.0106933 0.000203047 0)
(-0.011369 0.000199316 0)
(-0.0120148 0.000192633 0)
(-0.0126206 0.000182787 0)
(-0.0131761 0.000169619 0)
(-0.0136708 0.000153023 0)
(-0.0140944 0.000132965 0)
(-0.0144368 0.000109503 0)
(-0.0146887 8.28158e-05 0)
(-0.0148415 5.31947e-05 0)
(-0.0148876 2.08166e-05 0)
(-0.0148203 -1.40867e-05 0)
(-0.0146353 -5.08107e-05 0)
(-0.0143295 -8.86854e-05 0)
(-0.0139021 -0.000127024 0)
(-0.0133542 -0.000165069 0)
(-0.0126894 -0.000202003 0)
(-0.0119135 -0.000236976 0)
(-0.0110347 -0.000269129 0)
(-0.0100635 -0.000297631 0)
(-0.00901251 -0.000321704 0)
(-0.00789638 -0.000340663 0)
(-0.00673135 -0.000353941 0)
(-0.00553497 -0.000361125 0)
(-0.00432567 -0.000361972 0)
(-0.00312227 -0.000356435 0)
(-0.00194347 -0.000344664 0)
(-0.000807296 -0.000327022 0)
(0.000269314 -0.000304082 0)
(0.00127107 -0.000276489 0)
(0.00218485 -0.000245129 0)
(0.00299987 -0.000210961 0)
(0.00370804 -0.000174989 0)
(0.00430408 -0.000138229 0)
(0.00478557 -0.000101669 0)
(0.00515286 -6.62177e-05 0)
(0.00540885 -3.2674e-05 0)
(0.00555876 -1.69893e-06 0)
(0.00560972 2.62015e-05 0)
(0.00557042 5.06834e-05 0)
(0.00545061 7.15677e-05 0)
(0.00526073 8.88246e-05 0)
(0.00501142 0.000102559 0)
(0.00471322 0.000112992 0)
(0.00437617 0.00012043 0)
(0.0040096 0.000125246 0)
(0.00362194 0.000127836 0)
(0.00322067 0.000128591 0)
(0.00281235 0.000127854 0)
(0.00240283 0.00012586 0)
(0.00199756 0.000122678 0)
(0.00160217 0.000118124 0)
(0.00122315 0.000111649 0)
(0.000868877 0.000102218 0)
(0.000550742 8.82155e-05 0)
(0.000283916 6.75773e-05 0)
(8.66067e-05 3.85451e-05 0)
(-2.09254e-05 2.49046e-06 0)
(-2.47952e-05 -2.49516e-05 0)
(1.83934e-05 -3.05975e-05 0)
(0.000116992 -0.000116681 0)
(0.000307221 -0.000176191 0)
(0.000538681 -0.000203681 0)
(0.000780619 -0.000206534 0)
(0.00101112 -0.000192329 0)
(0.00121368 -0.000167061 0)
(0.00137694 -0.000135114 0)
(0.0014937 -9.94812e-05 0)
(0.0015596 -6.20824e-05 0)
(0.00157209 -2.40395e-05 0)
(0.00152984 1.41586e-05 0)
(0.001432 5.22813e-05 0)
(0.00127771 9.04404e-05 0)
(0.00106603 0.000128924 0)
(0.000795642 0.000168112 0)
(0.00046478 0.000208432 0)
(7.12004e-05 0.000250321 0)
(-0.000387815 0.00029419 0)
(-0.000915402 0.000340409 0)
(-0.00151503 0.000389277 0)
(-0.00219039 0.000441015 0)
(-0.00294527 0.000495742 0)
(-0.00378338 0.000553472 0)
(-0.00470819 0.000614095 0)
(-0.00572278 0.000677371 0)
(-0.00682957 0.00074292 0)
(-0.0080302 0.000810218 0)
(-0.00932526 0.000878594 0)
(-0.0107141 0.000947222 0)
(-0.0121947 0.00101513 0)
(-0.0137635 0.0010812 0)
(-0.0154149 0.00114418 0)
(-0.0171416 0.00120269 0)
(-0.0189343 0.00125523 0)
(-0.0207815 0.00130025 0)
(-0.0226696 0.00133612 0)
(-0.024583 0.00136118 0)
(-0.0265039 0.00137379 0)
(-0.0284127 0.00137239 0)
(-0.030288 0.00135549 0)
(-0.0321072 0.00132175 0)
(-0.0338462 0.00127005 0)
(-0.0354802 0.0011995 0)
(-0.0369842 0.00110949 0)
(-0.0383328 0.000999753 0)
(-0.0395015 0.000870403 0)
(-0.0404667 0.000721954 0)
(-0.041206 0.000555363 0)
(-0.0416994 0.000372082 0)
(-0.0419297 0.000173968 0)
(-0.0418823 -3.70635e-05 0)
(-0.0415453 -0.000257696 0)
(-0.0409116 -0.000484897 0)
(-0.0399785 -0.000715137 0)
(-0.0387477 -0.000944543 0)
(-0.0372256 -0.00116899 0)
(-0.0354234 -0.00138421 0)
(-0.0333576 -0.00158587 0)
(-0.0310493 -0.00176969 0)
(-0.0285243 -0.0019316 0)
(-0.025813 -0.00206785 0)
(-0.0229493 -0.00217517 0)
(-0.0199708 -0.00225085 0)
(-0.0169175 -0.00229292 0)
(-0.0138311 -0.00230022 0)
(-0.0107543 -0.00227248 0)
(-0.00772948 -0.00221038 0)
(-0.00479803 -0.00211554 0)
(-0.00199904 -0.00199053 0)
(0.000631445 -0.00183867 0)
(0.00306153 -0.00166402 0)
(0.00526421 -0.00147129 0)
(0.0072179 -0.00126551 0)
(0.00890695 -0.00105193 0)
(0.0103218 -0.000835751 0)
(0.0114592 -0.000621974 0)
(0.0123216 -0.000415183 0)
(0.0129172 -0.000219404 0)
(0.0132588 -3.79767e-05 0)
(0.0133638 0.000126524 0)
(0.0132523 0.000272327 0)
(0.0129474 0.000398462 0)
(0.012473 0.000504702 0)
(0.0118541 0.000591486 0)
(0.0111151 0.000659811 0)
(0.0102797 0.000711079 0)
(0.00937017 0.000746928 0)
(0.00840711 0.000769026 0)
(0.00740961 0.000778833 0)
(0.00639547 0.000777327 0)
(0.00538186 0.000764693 0)
(0.00438636 0.000739987 0)
(0.00342825 0.000700803 0)
(0.00253 0.000643035 0)
(0.00171864 0.000561006 0)
(0.00102598 0.00044861 0)
(0.000485713 0.000302415 0)
(0.00013242 0.000129924 0)
(3.48418e-06 -2.07955e-05 0)
(3.35971e-05 -0.000113883 0)
(0.0001779 -0.000307385 0)
(0.000432729 -0.000431066 0)
(0.000730319 -0.000486022 0)
(0.00103149 -0.000485908 0)
(0.00130891 -0.000445272 0)
(0.00154105 -0.000376595 0)
(0.00171225 -0.000289597 0)
(0.00181175 -0.000191301 0)
(0.00183235 -8.64516e-05 0)
(0.00176932 2.20246e-05 0)
(0.00161929 0.000132632 0)
(0.00137961 0.000244709 0)
(0.00104796 0.000358372 0)
(0.000621786 0.000474196 0)
(9.81238e-05 0.000593018 0)
(-0.000526494 0.000715805 0)
(-0.0012561 0.000843542 0)
(-0.00209525 0.000977148 0)
(-0.00304893 0.0011174 0)
(-0.00412242 0.0012649 0)
(-0.0053211 0.00141997 0)
(-0.00665022 0.00158267 0)
(-0.00811465 0.00175273 0)
(-0.00971863 0.00192951 0)
(-0.0114654 0.00211202 0)
(-0.013357 0.00229884 0)
(-0.0153938 0.00248815 0)
(-0.0175744 0.00267773 0)
(-0.0198952 0.00286495 0)
(-0.02235 0.00304678 0)
(-0.0249302 0.00321987 0)
(-0.0276241 0.00338051 0)
(-0.030417 0.00352477 0)
(-0.0332913 0.00364849 0)
(-0.0362262 0.00374743 0)
(-0.0391979 0.00381731 0)
(-0.0421799 0.00385394 0)
(-0.0451429 0.00385332 0)
(-0.0480557 0.00381174 0)
(-0.0508848 0.00372595 0)
(-0.0535957 0.00359321 0)
(-0.0561528 0.00341143 0)
(-0.0585204 0.00317927 0)
(-0.0606632 0.00289623 0)
(-0.0625465 0.00256273 0)
(-0.0641377 0.00218015 0)
(-0.0654062 0.0017509 0)
(-0.0663242 0.00127841 0)
(-0.0668677 0.00076711 0)
(-0.067017 0.000222465 0)
(-0.0667558 -0.000348919 0)
(-0.0660727 -0.000939179 0)
(-0.0649633 -0.00154049 0)
(-0.0634278 -0.00214397 0)
(-0.0614725 -0.00274008 0)
(-0.0591098 -0.00331891 0)
(-0.056358 -0.00387032 0)
(-0.0532417 -0.00438422 0)
(-0.0497914 -0.00485076 0)
(-0.046043 -0.00526064 0)
(-0.0420378 -0.00560535 0)
(-0.0378218 -0.00587745 0)
(-0.0334446 -0.00607083 0)
(-0.0289595 -0.00618099 0)
(-0.0244217 -0.0062052 0)
(-0.0198878 -0.00614274 0)
(-0.0154142 -0.00599494 0)
(-0.0110565 -0.00576526 0)
(-0.00686792 -0.00545924 0)
(-0.00289817 -0.00508434 0)
(0.000807639 -0.00464973 0)
(0.0042101 -0.00416606 0)
(0.00727638 -0.00364503 0)
(0.00998089 -0.00309901 0)
(0.0123058 -0.00254058 0)
(0.0142411 -0.00198203 0)
(0.015785 -0.00143498 0)
(0.0169431 -0.000909967 0)
(0.0177282 -0.000416097 0)
(0.0181592 3.91963e-05 0)
(0.0182606 0.000450301 0)
(0.0180608 0.000813513 0)
(0.0175914 0.00112696 0)
(0.016886 0.00139046 0)
(0.0159788 0.00160532 0)
(0.0149037 0.00177395 0)
(0.013694 0.00189952 0)
(0.0123814 0.0019854 0)
(0.0109959 0.00203459 0)
(0.00956656 0.00204911 0)
(0.00812151 0.00202925 0)
(0.00668941 0.00197294 0)
(0.0053006 0.00187518 0)
(0.00398861 0.00172791 0)
(0.00279137 0.0015208 0)
(0.00175071 0.00124405 0)
(0.00090857 0.000894161 0)
(0.000312857 0.000486151 0)
(4.17435e-05 9.0388e-05 0)
(4.07914e-05 -0.000221569 0)
(0.000206239 -0.000539804 0)
(0.000486826 -0.000728703 0)
(0.000801912 -0.000803891 0)
(0.00110673 -0.000788356 0)
(0.00137101 -0.000704798 0)
(0.00157066 -0.000572743 0)
(0.00168757 -0.000407639 0)
(0.00170868 -0.000220895 0)
(0.0016246 -2.03783e-05 0)
(0.00142844 0.000188924 0)
(0.00111476 0.000404214 0)
(0.000678928 0.000624433 0)
(0.000116594 0.000849648 0)
(-0.000576783 0.0010807 0)
(-0.00140613 0.0013189 0)
(-0.00237687 0.00156576 0)
(-0.00349492 0.00182282 0)
(-0.00476664 0.00209144 0)
(-0.00619868 0.00237273 0)
(-0.00779772 0.00266738 0)
(-0.00957026 0.00297559 0)
(-0.0115223 0.00329698 0)
(-0.0136588 0.00363054 0)
(-0.0159838 0.00397455 0)
(-0.0184992 0.00432654 0)
(-0.0212053 0.0046833 0)
(-0.0240996 0.00504082 0)
(-0.0271768 0.00539438 0)
(-0.0304287 0.0057385 0)
(-0.0338433 0.00606709 0)
(-0.0374051 0.00637344 0)
(-0.0410947 0.00665041 0)
(-0.044889 0.00689052 0)
(-0.048761 0.00708613 0)
(-0.05268 0.00722956 0)
(-0.0566122 0.00731335 0)
(-0.0605207 0.00733042 0)
(-0.064366 0.00727428 0)
(-0.0681068 0.00713921 0)
(-0.0717005 0.0069205 0)
(-0.0751039 0.00661458 0)
(-0.0782737 0.00621918 0)
(-0.0811676 0.00573348 0)
(-0.0837448 0.00515819 0)
(-0.0859665 0.00449563 0)
(-0.0877971 0.0037498 0)
(-0.0892043 0.00292632 0)
(-0.0901598 0.00203247 0)
(-0.0906401 0.00107701 0)
(-0.0906267 7.0398e-05 0)
(-0.0901058 -0.000974197 0)
(-0.0890695 -0.00204506 0)
(-0.0875169 -0.0031278 0)
(-0.0854522 -0.00420713 0)
(-0.0828863 -0.00526712 0)
(-0.0798362 -0.00629139 0)
(-0.0763255 -0.00726341 0)
(-0.0723838 -0.00816683 0)
(-0.0680468 -0.00898578 0)
(-0.0633562 -0.0097053 0)
(-0.0583587 -0.0103117 0)
(-0.0531062 -0.0107931 0)
(-0.0476548 -0.0111394 0)
(-0.0420642 -0.0113434 0)
(-0.0363965 -0.0114002 0)
(-0.0307158 -0.0113084 0)
(-0.0250865 -0.0110696 0)
(-0.0195726 -0.0106889 0)
(-0.0142363 -0.0101745 0)
(-0.00913648 -0.00953814 0)
(-0.00432787 -0.00879415 0)
(0.000140398 -0.00795951 0)
(0.00422582 -0.00705316 0)
(0.0078934 -0.00609541 0)
(0.0111164 -0.0051073 0)
(0.013877 -0.00410979 0)
(0.016166 -0.00312307 0)
(0.0179834 -0.00216591 0)
(0.0193378 -0.00125504 0)
(0.0202454 -0.000404669 0)
(0.0207297 0.000373887 0)
(0.0208202 0.00107237 0)
(0.0205511 0.00168566 0)
(0.01996 0.00221154 0)
(0.0190869 0.00265044 0)
(0.0179728 0.00300488 0)
(0.0166588 0.00327888 0)
(0.0151853 0.00347709 0)
(0.0135918 0.00360382 0)
(0.0119167 0.003662 0)
(0.0101982 0.00365207 0)
(0.00847446 0.00357097 0)
(0.00678521 0.00341139 0)
(0.00517288 0.00316181 0)
(0.00368382 0.00280779 0)
(0.00236774 0.0023358 0)
(0.00127444 0.00174046 0)
(0.000468469 0.00103758 0)
(7.3669e-05 0.000297321 0)
(4.21874e-05 -0.00033709 0)
(0.000207651 -0.000780711 0)
(0.000478586 -0.00102541 0)
(0.000768073 -0.00110596 0)
(0.00102828 -0.0010573 0)
(0.00122747 -0.000911333 0)
(0.0013405 -0.00069486 0)
(0.00134817 -0.000428971 0)
(0.00123604 -0.00012931 0)
(0.000993095 0.000193259 0)
(0.000610546 0.00053178 0)
(8.09464e-05 0.000882356 0)
(-0.000602476 0.00124342 0)
(-0.00144631 0.00161501 0)
(-0.00245731 0.00199823 0)
(-0.00364255 0.0023948 0)
(-0.00500952 0.0028067 0)
(-0.00656603 0.00323587 0)
(-0.00832009 0.00368392 0)
(-0.0102797 0.004152 0)
(-0.0124525 0.00464055 0)
(-0.0148454 0.00514918 0)
(-0.0174643 0.00567653 0)
(-0.0203134 0.00622019 0)
(-0.023395 0.00677661 0)
(-0.0267087 0.00734101 0)
(-0.0302512 0.00790746 0)
(-0.0340158 0.00846882 0)
(-0.0379918 0.00901684 0)
(-0.0421645 0.00954222 0)
(-0.0465148 0.0100348 0)
(-0.0510191 0.0104838 0)
(-0.0556494 0.0108777 0)
(-0.0603732 0.011205 0)
(-0.0651542 0.0114542 0)
(-0.0699523 0.0116139 0)
(-0.0747243 0.0116737 0)
(-0.0794247 0.0116238 0)
(-0.0840058 0.0114558 0)
(-0.0884193 0.0111628 0)
(-0.0926164 0.0107396 0)
(-0.0965489 0.0101828 0)
(-0.10017 0.00949128 0)
(-0.103435 0.00866598 0)
(-0.106302 0.00771014 0)
(-0.108732 0.00662923 0)
(-0.11069 0.00543099 0)
(-0.112147 0.00412536 0)
(-0.113075 0.00272437 0)
(-0.113455 0.00124199 0)
(-0.113271 -0.000305836 0)
(-0.112512 -0.00190079 0)
(-0.111176 -0.00352473 0)
(-0.109264 -0.00515714 0)
(-0.106783 -0.00677653 0)
(-0.103747 -0.00836073 0)
(-0.100175 -0.00988709 0)
(-0.0960927 -0.0113329 0)
(-0.0915323 -0.0126756 0)
(-0.086531 -0.0138937 0)
(-0.081132 -0.0149664 0)
(-0.0753837 -0.0158749 0)
(-0.0693398 -0.0166026 0)
(-0.0630585 -0.0171355 0)
(-0.0566019 -0.0174629 0)
(-0.0500353 -0.0175776 0)
(-0.0434265 -0.0174768 0)
(-0.0368444 -0.0171617 0)
(-0.0303581 -0.0166382 0)
(-0.0240359 -0.0159168 0)
(-0.0179437 -0.0150125 0)
(-0.0121437 -0.0139445 0)
(-0.00669321 -0.0127356 0)
(-0.00164346 -0.0114117 0)
(0.00296154 -0.0100011 0)
(0.00708607 -0.00853332 0)
(0.0107034 -0.00703859 0)
(0.013796 -0.0055464 0)
(0.0163563 -0.00408479 0)
(0.0183859 -0.00267937 0)
(0.0198957 -0.00135257 0)
(0.0209053 -0.000123031 0)
(0.0214414 0.000994749 0)
(0.0215374 0.00199071 0)
(0.0212319 0.00285892 0)
(0.0205672 0.0035974 0)
(0.0195882 0.00420744 0)
(0.0183415 0.00469276 0)
(0.016874 0.00505837 0)
(0.0152324 0.00530926 0)
(0.0134633 0.00544891 0)
(0.0116129 0.00547784 0)
(0.00972792 0.00539219 0)
(0.00785612 0.00518284 0)
(0.00604758 0.00483532 0)
(0.0043561 0.00433135 0)
(0.00283899 0.00365277 0)
(0.00155483 0.00278866 0)
(0.000585591 0.00174682 0)
(9.64282e-05 0.000578954 0)
(3.96266e-05 -0.000447705 0)
(0.000187812 -0.00100333 0)
(0.000417851 -0.001286 0)
(0.000643308 -0.0013513 0)
(0.000815927 -0.00124771 0)
(0.000903862 -0.00101699 0)
(0.000882099 -0.00069327 0)
(0.000731259 -0.000302994 0)
(0.000436275 0.000134354 0)
(-1.50478e-05 0.000605296 0)
(-0.000633117 0.00110124 0)
(-0.00142733 0.00161739 0)
(-0.00240664 0.00215183 0)
(-0.00357995 0.00270461 0)
(-0.00495631 0.00327706 0)
(-0.00654502 0.00387123 0)
(-0.00835558 0.00448936 0)
(-0.0103976 0.00513352 0)
(-0.0126804 0.00580526 0)
(-0.0152129 0.0065053 0)
(-0.0180031 0.00723331 0)
(-0.0210576 0.00798768 0)
(-0.0243813 0.00876535 0)
(-0.0279763 0.00956168 0)
(-0.0318421 0.0103704 0)
(-0.0359746 0.0111834 0)
(-0.0403655 0.0119911 0)
(-0.0450022 0.0127822 0)
(-0.0498674 0.0135439 0)
(-0.0549389 0.0142624 0)
(-0.0601891 0.0149226 0)
(-0.065586 0.015509 0)
(-0.0710923 0.0160055 0)
(-0.0766669 0.0163964 0)
(-0.0822646 0.0166663 0)
(-0.0878373 0.0168008 0)
(-0.0933344 0.0167869 0)
(-0.098704 0.0166131 0)
(-0.103893 0.0162702 0)
(-0.10885 0.0157513 0)
(-0.113523 0.0150519 0)
(-0.117863 0.0141703 0)
(-0.121823 0.0131076 0)
(-0.125359 0.011868 0)
(-0.128431 0.010458 0)
(-0.131004 0.00888735 0)
(-0.133045 0.00716815 0)
(-0.134529 0.00531511 0)
(-0.135432 0.00334532 0)
(-0.135738 0.00127807 0)
(-0.135433 -0.00086536 0)
(-0.134512 -0.00306235 0)
(-0.132972 -0.00528787 0)
(-0.130816 -0.00751593 0)
(-0.128053 -0.00971948 0)
(-0.124697 -0.0118706 0)
(-0.120767 -0.0139408 0)
(-0.116288 -0.0159017 0)
(-0.111291 -0.0177249 0)
(-0.105812 -0.0193831 0)
(-0.0998923 -0.0208502 0)
(-0.0935802 -0.022102 0)
(-0.0869281 -0.0231169 0)
(-0.0799937 -0.0238765 0)
(-0.0728393 -0.0243661 0)
(-0.0655312 -0.0245755 0)
(-0.0581389 -0.0244995 0)
(-0.0507341 -0.0241383 0)
(-0.0433899 -0.0234977 0)
(-0.0361792 -0.0225893 0)
(-0.0291738 -0.0214307 0)
(-0.0224427 -0.0200448 0)
(-0.0160508 -0.0184598 0)
(-0.0100578 -0.0167079 0)
(-0.00451642 -0.014825 0)
(0.000528433 -0.0128492 0)
(0.00504072 -0.0108198 0)
(0.00899393 -0.00877612 0)
(0.0123716 -0.0067561 0)
(0.0151676 -0.00479511 0)
(0.0173856 -0.00292493 0)
(0.0190391 -0.00117287 0)
(0.0201504 0.00043888 0)
(0.0207496 0.0018935 0)
(0.0208737 0.00317987 0)
(0.020565 0.00429196 0)
(0.0198702 0.00522828 0)
(0.0188388 0.00599086 0)
(0.0175221 0.00658393 0)
(0.0159727 0.00701224 0)
(0.0142433 0.00727928 0)
(0.0123871 0.00738534 0)
(0.010458 0.00732582 0)
(0.0085109 0.00708996 0)
(0.00660284 0.0066606 0)
(0.00479477 0.00601533 0)
(0.00315175 0.0051299 0)
(0.00174163 0.00398418 0)
(0.000662208 0.002571 0)
(0.000110491 0.000912971 0)
(3.42385e-05 -0.000543298 0)
(0.000150893 -0.00118405 0)
(0.00031273 -0.00147812 0)
(0.000439823 -0.00150187 0)
(0.000486172 -0.0013177 0)
(0.000421209 -0.00097736 0)
(0.000221124 -0.000521997 0)
(-0.000132818 1.71049e-05 0)
(-0.000655784 0.000617246 0)
(-0.00136077 0.0012629 0)
(-0.00225959 0.00194431 0)
(-0.00336353 0.00265614 0)
(-0.00468369 0.0033963 0)
(-0.00623128 0.00416494 0)
(-0.00801764 0.00496356 0)
(-0.0100542 0.00579435 0)
(-0.0123523 0.00665955 0)
(-0.0149231 0.00756099 0)
(-0.0177768 0.00849961 0)
(-0.0209226 0.00947516 0)
(-0.0243682 0.0104858 0)
(-0.028119 0.0115279 0)
(-0.0321776 0.0125959 0)
(-0.0365432 0.0136818 0)
(-0.041211 0.0147757 0)
(-0.0461716 0.0158652 0)
(-0.0514109 0.016936 0)
(-0.0569092 0.0179718 0)
(-0.0626414 0.0189546 0)
(-0.068577 0.019865 0)
(-0.0746799 0.020683 0)
(-0.0809093 0.021388 0)
(-0.0872197 0.0219597 0)
(-0.0935621 0.0223784 0)
(-0.0998844 0.0226256 0)
(-0.106132 0.0226848 0)
(-0.112251 0.0225415 0)
(-0.118184 0.0221839 0)
(-0.123878 0.0216034 0)
(-0.12928 0.0207942 0)
(-0.134338 0.0197542 0)
(-0.139006 0.0184845 0)
(-0.143239 0.0169895 0)
(-0.146998 0.0152772 0)
(-0.150245 0.0133583 0)
(-0.152949 0.011247 0)
(-0.155083 0.00895979 0)
(-0.156623 0.00651611 0)
(-0.15755 0.00393767 0)
(-0.157849 0.0012485 0)
(-0.157511 -0.0015254 0)
(-0.156528 -0.00435658 0)
(-0.1549 -0.00721531 0)
(-0.152629 -0.0100707 0)
(-0.149722 -0.0128907 0)
(-0.146191 -0.0156422 0)
(-0.142054 -0.0182915 0)
(-0.137331 -0.0208048 0)
(-0.13205 -0.0231483 0)
(-0.126245 -0.0252889 0)
(-0.119953 -0.0271949 0)
(-0.113219 -0.0288367 0)
(-0.106094 -0.0301871 0)
(-0.0986323 -0.0312227 0)
(-0.0908959 -0.031924 0)
(-0.0829507 -0.032277 0)
(-0.074867 -0.032273 0)
(-0.0667187 -0.0319099 0)
(-0.058582 -0.0311924 0)
(-0.0505345 -0.0301322 0)
(-0.0426534 -0.0287483 0)
(-0.0350147 -0.0270666 0)
(-0.0276908 -0.0251195 0)
(-0.02075 -0.022945 0)
(-0.014254 -0.0205862 0)
(-0.00825725 -0.0180894 0)
(-0.00280541 -0.0155031 0)
(0.00206541 -0.0128765 0)
(0.00632951 -0.0102579 0)
(0.00997203 -0.00769305 0)
(0.0129888 -0.0052241 0)
(0.0153861 -0.0028881 0)
(0.0171804 -0.000716279 0)
(0.0183974 0.00126651 0)
(0.0190709 0.00304223 0)
(0.0192417 0.00459932 0)
(0.0189562 0.0059319 0)
(0.0182654 0.0070389 0)
(0.0172236 0.00792247 0)
(0.0158871 0.00858609 0)
(0.0143137 0.00903243 0)
(0.0125625 0.00926109 0)
(0.0106933 0.00926646 0)
(0.00876755 0.00903613 0)
(0.00684888 0.00855004 0)
(0.00500516 0.00778115 0)
(0.00330913 0.00669771 0)
(0.00183757 0.00526762 0)
(0.000700978 0.00346452 0)
(0.000117101 0.00127744 0)
(2.66583e-05 -0.000615758 0)
(9.96729e-05 -0.00130239 0)
(0.000169208 -0.00157278 0)
(0.000167052 -0.00152301 0)
(5.20336e-05 -0.00122896 0)
(-0.000203697 -0.000751799 0)
(-0.00062169 -0.000138992 0)
(-0.0012193 0.000574165 0)
(-0.00201134 0.00136258 0)
(-0.00301132 0.00220941 0)
(-0.00423234 0.00310433 0)
(-0.00568743 0.00404186 0)
(-0.00738984 0.00501999 0)
(-0.00935299 0.006039 0)
(-0.0115904 0.00710047 0)
(-0.0141154 0.00820646 0)
(-0.016941 0.00935882 0)
(-0.0200791 0.0105586 0)
(-0.0235406 0.0118055 0)
(-0.0273342 0.0130976 0)
(-0.0314663 0.0144307 0)
(-0.0359399 0.0157981 0)
(-0.0407546 0.0171906 0)
(-0.045905 0.0185962 0)
(-0.0513812 0.0200001 0)
(-0.0571676 0.0213847 0)
(-0.0632426 0.0227301 0)
(-0.0695789 0.0240142 0)
(-0.0761433 0.0252132 0)
(-0.0828967 0.0263024 0)
(-0.089795 0.0272565 0)
(-0.0967896 0.0280504 0)
(-0.103828 0.0286599 0)
(-0.110855 0.0290626 0)
(-0.117814 0.029238 0)
(-0.124648 0.0291687 0)
(-0.131299 0.0288404 0)
(-0.137712 0.0282423 0)
(-0.143833 0.0273677 0)
(-0.149612 0.0262135 0)
(-0.155001 0.0247807 0)
(-0.159955 0.0230741 0)
(-0.164437 0.0211022 0)
(-0.168409 0.0188768 0)
(-0.171839 0.0164131 0)
(-0.174701 0.0137292 0)
(-0.17697 0.0108457 0)
(-0.178624 0.00778622 0)
(-0.179648 0.00457622 0)
(-0.180028 0.00124363 0)
(-0.179754 -0.00218162 0)
(-0.178818 -0.00566818 0)
(-0.177217 -0.00918249 0)
(-0.174953 -0.0126896 0)
(-0.172028 -0.016153 0)
(-0.168451 -0.0195353 0)
(-0.164235 -0.0227979 0)
(-0.159397 -0.0259019 0)
(-0.153959 -0.028808 0)
(-0.14795 -0.0314777 0)
(-0.141403 -0.0338734 0)
(-0.134359 -0.0359592 0)
(-0.126863 -0.0377022 0)
(-0.118968 -0.039073 0)
(-0.110734 -0.0400464 0)
(-0.102225 -0.0406033 0)
(-0.0935123 -0.0407304 0)
(-0.0846707 -0.0404222 0)
(-0.0757797 -0.0396808 0)
(-0.0669211 -0.0385167 0)
(-0.0581781 -0.0369492 0)
(-0.0496335 -0.0350059 0)
(-0.0413681 -0.0327228 0)
(-0.0334591 -0.0301429 0)
(-0.0259779 -0.0273157 0)
(-0.0189891 -0.0242957 0)
(-0.0125486 -0.0211404 0)
(-0.0067027 -0.0179092 0)
(-0.00148687 -0.014661 0)
(0.00307467 -0.0114528 0)
(0.00696924 -0.00833775 0)
(0.0101957 -0.00536368 0)
(0.0127638 -0.00257201 0)
(0.0146941 3.18222e-06 0)
(0.0160163 0.00233545 0)
(0.0167687 0.0044062 0)
(0.0169965 0.00620376 0)
(0.016751 0.0077225 0)
(0.0160879 0.0089612 0)
(0.0150665 0.00992091 0)
(0.0137485 0.0106026 0)
(0.0121976 0.0110044 0)
(0.0104792 0.0111193 0)
(0.00866035 0.0109329 0)
(0.00681102 0.0104219 0)
(0.00500569 0.00955405 0)
(0.00332426 0.00828912 0)
(0.00185142 0.00658159 0)
(0.00070661 0.0043844 0)
(0.000117605 0.00165289 0)
(1.71993e-05 -0.00065821 0)
(3.58423e-05 -0.00134039 0)
(-8.61275e-06 -0.00154405 0)
(-0.00016807 -0.0013834 0)
(-0.000476467 -0.00094669 0)
(-0.000957505 -0.000303377 0)
(-0.00162944 0.000493948 0)
(-0.00250758 0.00140711 0)
(-0.00360597 0.00240964 0)
(-0.00493847 0.00348431 0)
(-0.00651928 0.00462086 0)
(-0.00836316 0.00581412 0)
(-0.0104854 0.00706238 0)
(-0.0129014 0.00836606 0)
(-0.0156268 0.00972661 0)
(-0.0186764 0.0111456 0)
(-0.0220643 0.012624 0)
(-0.025803 0.0141614 0)
(-0.0299029 0.0157555 0)
(-0.0343714 0.0174018 0)
(-0.0392127 0.0190925 0)
(-0.0444266 0.0208173 0)
(-0.050008 0.0225621 0)
(-0.0559465 0.0243097 0)
(-0.0622256 0.0260395 0)
(-0.0688225 0.0277279 0)
(-0.0757079 0.0293487 0)
(-0.0828466 0.0308738 0)
(-0.0901971 0.0322736 0)
(-0.0977126 0.0335179 0)
(-0.105342 0.034577 0)
(-0.11303 0.0354221 0)
(-0.12072 0.0360264 0)
(-0.128353 0.0363658 0)
(-0.135869 0.0364195 0)
(-0.143212 0.0361708 0)
(-0.150325 0.0356068 0)
(-0.157154 0.0347194 0)
(-0.163649 0.0335046 0)
(-0.169763 0.031963 0)
(-0.175454 0.0300995 0)
(-0.180681 0.0279227 0)
(-0.185411 0.0254451 0)
(-0.189612 0.0226825 0)
(-0.193255 0.0196536 0)
(-0.196316 0.0163801 0)
(-0.198773 0.0128861 0)
(-0.200608 0.00919813 0)
(-0.201804 0.00534478 0)
(-0.202347 0.00135687 0)
(-0.202226 -0.00273273 0)
(-0.201432 -0.00688961 0)
(-0.199959 -0.0110772 0)
(-0.197805 -0.0152571 0)
(-0.194968 -0.0193893 0)
(-0.191453 -0.0234322 0)
(-0.187267 -0.0273431 0)
(-0.182421 -0.031078 0)
(-0.176932 -0.0345926 0)
(-0.170822 -0.0378425 0)
(-0.16412 -0.040784 0)
(-0.156859 -0.0433748 0)
(-0.149082 -0.0455753 0)
(-0.140835 -0.0473492 0)
(-0.132176 -0.0486649 0)
(-0.123167 -0.0494965 0)
(-0.113878 -0.0498251 0)
(-0.104385 -0.04964 0)
(-0.0947704 -0.0489394 0)
(-0.0851192 -0.047731 0)
(-0.0755207 -0.0460329 0)
(-0.0660651 -0.0438734 0)
(-0.056842 -0.0412906 0)
(-0.0479382 -0.0383319 0)
(-0.039436 -0.0350527 0)
(-0.031411 -0.0315152 0)
(-0.0239305 -0.027786 0)
(-0.0170518 -0.023935 0)
(-0.0108211 -0.0200322 0)
(-0.00527281 -0.0161464 0)
(-0.000428638 -0.0123427 0)
(0.0037021 -0.00868077 0)
(0.00712237 -0.00521328 0)
(0.00984678 -0.00198489 0)
(0.0119009 0.000968436 0)
(0.0133196 0.00361945 0)
(0.0141466 0.00594951 0)
(0.0144327 0.0079471 0)
(0.0142344 0.00960632 0)
(0.0136131 0.0109246 0)
(0.0126336 0.0119003 0)
(0.0113637 0.0125293 0)
(0.00987345 0.0128024 0)
(0.00823536 0.0127028 0)
(0.00652514 0.0122036 0)
(0.00482339 0.0112669 0)
(0.00321637 0.00984363 0)
(0.00179523 0.00787468 0)
(0.000684693 0.00529291 0)
(0.000113296 0.002023 0)
(6.00682e-06 -0.000664427 0)
(-3.96538e-05 -0.00128179 0)
(-0.000218028 -0.00136828 0)
(-0.000560467 -0.00105444 0)
(-0.00109153 -0.000439155 0)
(-0.00182935 0.000401543 0)
(-0.00278789 0.0014115 0)
(-0.00397984 0.00255115 0)
(-0.00541816 0.00379395 0)
(-0.00711682 0.00512323 0)
(-0.00909109 0.00652957 0)
(-0.0113573 0.00800854 0)
(-0.0139327 0.00955888 0)
(-0.0168346 0.0111811 0)
(-0.02008 0.0128762 0)
(-0.0236852 0.0146448 0)
(-0.0276646 0.0164863 0)
(-0.0320305 0.018398 0)
(-0.0367919 0.0203749 0)
(-0.0419543 0.0224085 0)
(-0.0475184 0.0244869 0)
(-0.0534797 0.0265945 0)
(-0.0598277 0.0287117 0)
(-0.0665455 0.0308149 0)
(-0.0736096 0.0328771 0)
(-0.0809896 0.0348681 0)
(-0.0886484 0.0367553 0)
(-0.0965428 0.0385042 0)
(-0.104624 0.04008 0)
(-0.112839 0.0414479 0)
(-0.121131 0.0425746 0)
(-0.12944 0.0434289 0)
(-0.137707 0.0439829 0)
(-0.145872 0.0442125 0)
(-0.153877 0.0440981 0)
(-0.161665 0.0436247 0)
(-0.169183 0.0427827 0)
(-0.176381 0.0415669 0)
(-0.183213 0.0399775 0)
(-0.189638 0.0380189 0)
(-0.195617 0.0356998 0)
(-0.201116 0.0330327 0)
(-0.206104 0.0300336 0)
(-0.210553 0.0267217 0)
(-0.214438 0.0231187 0)
(-0.217737 0.0192489 0)
(-0.220429 0.0151391 0)
(-0.222496 0.0108179 0)
(-0.223922 0.00631611 0)
(-0.224692 0.0016667 0)
(-0.224794 -0.00309548 0)
(-0.224215 -0.00793363 0)
(-0.222948 -0.0128088 0)
(-0.220984 -0.01768 0)
(-0.21832 -0.0225042 0)
(-0.214954 -0.0272363 0)
(-0.210888 -0.0318297 0)
(-0.206127 -0.0362359 0)
(-0.200681 -0.0404056 0)
(-0.194567 -0.0442886 0)
(-0.187803 -0.0478351 0)
(-0.18042 -0.0509961 0)
(-0.172451 -0.0537244 0)
(-0.163938 -0.0559762 0)
(-0.154934 -0.0577121 0)
(-0.145497 -0.0588987 0)
(-0.135694 -0.0595095 0)
(-0.125601 -0.059527 0)
(-0.115302 -0.0589436 0)
(-0.104885 -0.0577626 0)
(-0.0944454 -0.0559992 0)
(-0.0840799 -0.0536803 0)
(-0.0738874 -0.0508452 0)
(-0.0639654 -0.0475443 0)
(-0.054408 -0.0438383 0)
(-0.0453033 -0.0397965 0)
(-0.0367315 -0.035495 0)
(-0.0287625 -0.0310141 0)
(-0.0214549 -0.0264358 0)
(-0.0148541 -0.0218415 0)
(-0.00899224 -0.0173092 0)
(-0.00388744 -0.0129117 0)
(0.00045572 -0.00871426 0)
(0.00404576 -0.00477331 0)
(0.0069033 -0.00113572 0)
(0.00906026 0.00216152 0)
(0.0105583 0.00509127 0)
(0.0114475 0.00763489 0)
(0.011785 0.0097806 0)
(0.0116338 0.0115212 0)
(0.0110614 0.0128512 0)
(0.0101392 0.0137636 0)
(0.00894156 0.0142465 0)
(0.00754604 0.0142799 0)
(0.00603364 0.0138329 0)
(0.00449044 0.012862 0)
(0.00300813 0.0113093 0)
(0.0016828 0.00910323 0)
(0.00064121 0.00615872 0)
(0.000105407 0.00237472 0)
(-6.94764e-06 -0.000628526 0)
(-0.000126271 -0.00111144 0)
(-0.000457101 -0.0010236 0)
(-0.00100629 -0.000509835 0)
(-0.00178678 0.000322677 0)
(-0.00280988 0.00139348 0)
(-0.00408444 0.00264494 0)
(-0.00561992 0.00403789 0)
(-0.00742791 0.00554718 0)
(-0.00952242 0.00715784 0)
(-0.0119197 0.00886202 0)
(-0.0146375 0.0106564 0)
(-0.0176948 0.0125404 0)
(-0.0211105 0.0145142 0)
(-0.0249029 0.0165781 0)
(-0.0290886 0.0187311 0)
(-0.0336821 0.0209702 0)
(-0.0386943 0.0232897 0)
(-0.0441324 0.0256804 0)
(-0.0499984 0.0281293 0)
(-0.0562888 0.030619 0)
(-0.0629937 0.0331276 0)
(-0.0700964 0.035629 0)
(-0.0775731 0.0380926 0)
(-0.0853926 0.0404845 0)
(-0.0935169 0.0427674 0)
(-0.101901 0.0449026 0)
(-0.110496 0.04685 0)
(-0.119246 0.04857 0)
(-0.128093 0.0500246 0)
(-0.136976 0.0511782 0)
(-0.145835 0.0519987 0)
(-0.15461 0.0524586 0)
(-0.16324 0.0525354 0)
(-0.171671 0.0522118 0)
(-0.179848 0.0514762 0)
(-0.187724 0.0503225 0)
(-0.195253 0.0487495 0)
(-0.202393 0.0467614 0)
(-0.209107 0.0443664 0)
(-0.215362 0.041577 0)
(-0.221127 0.0384089 0)
(-0.226375 0.0348813 0)
(-0.231081 0.0310157 0)
(-0.235222 0.0268364 0)
(-0.238778 0.0223698 0)
(-0.241728 0.0176441 0)
(-0.244056 0.0126898 0)
(-0.245745 0.00753915 0)
(-0.246779 0.0022264 0)
(-0.247145 -0.00321218 0)
(-0.246829 -0.0087381 0)
(-0.24582 -0.0143107 0)
(-0.244107 -0.0198871 0)
(-0.241682 -0.0254218 0)
(-0.238537 -0.0308671 0)
(-0.234671 -0.0361728 0)
(-0.23008 -0.0412868 0)
(-0.224769 -0.0461551 0)
(-0.218746 -0.0507221 0)
(-0.212022 -0.0549318 0)
(-0.204619 -0.0587283 0)
(-0.196562 -0.0620569 0)
(-0.187886 -0.0648654 0)
(-0.178636 -0.0671056 0)
(-0.168863 -0.068735 0)
(-0.158632 -0.0697183 0)
(-0.148016 -0.0700292 0)
(-0.137095 -0.0696521 0)
(-0.125962 -0.0685838 0)
(-0.114716 -0.066834 0)
(-0.103459 -0.0644267 0)
(-0.092301 -0.0614 0)
(-0.0813495 -0.0578059 0)
(-0.0707116 -0.0537093 0)
(-0.0604898 -0.0491861 0)
(-0.0507789 -0.0443213 0)
(-0.0416639 -0.0392062 0)
(-0.0332174 -0.0339356 0)
(-0.0254985 -0.0286044 0)
(-0.018551 -0.0233051 0)
(-0.0124035 -0.0181249 0)
(-0.00706923 -0.0131432 0)
(-0.00254644 -0.00842981 0)
(0.00118046 -0.0040441 0)
(0.00413986 -3.39602e-05 0)
(0.00637146 0.00356347 0)
(0.00792468 0.00672118 0)
(0.00885726 0.00942042 0)
(0.00923385 0.0116483 0)
(0.00912467 0.0133946 0)
(0.00860449 0.0146485 0)
(0.00775191 0.0153947 0)
(0.00664905 0.0156097 0)
(0.00538189 0.0152585 0)
(0.00404142 0.0142918 0)
(0.00272375 0.012644 0)
(0.00152859 0.0102324 0)
(0.000582227 0.00695748 0)
(9.5119e-05 0.0026983 0)
(-2.16579e-05 -0.000544806 0)
(-0.000223646 -0.000814978 0)
(-0.000724352 -0.000489738 0)
(-0.00150218 0.000274557 0)
(-0.00255646 0.00136512 0)
(-0.00389047 0.00269983 0)
(-0.00550709 0.00422208 0)
(-0.00741215 0.0058952 0)
(-0.00961566 0.00769708 0)
(-0.0121316 0.00961567 0)
(-0.0149769 0.0116454 0)
(-0.018171 0.0137845 0)
(-0.021734 0.0160327 0)
(-0.0256861 0.0183901 0)
(-0.0300462 0.0208553 0)
(-0.0348309 0.023425 0)
(-0.0400536 0.026093 0)
(-0.0457233 0.0288494 0)
(-0.051844 0.03168 0)
(-0.0584135 0.0345659 0)
(-0.0654232 0.0374832 0)
(-0.072857 0.0404031 0)
(-0.0806912 0.043292 0)
(-0.0888949 0.0461119 0)
(-0.0974292 0.0488216 0)
(-0.106249 0.0513775 0)
(-0.115303 0.0537347 0)
(-0.124535 0.0558487 0)
(-0.133886 0.0576765 0)
(-0.143295 0.0591779 0)